 Entering Gaussian System, Link 0=/share/apps/g09/g09
 Input=C6H14_3_00_1_opt_PM6.gjf
 Output=C6H14_3_00_1_opt_PM6.log
 Initial command:
 /share/apps/g09/l1.exe /state/partition1/Gau-19940.inp -scrdir=/state/partition1/
 Entering Link 1 = /share/apps/g09/l1.exe PID=     19944.
  
 Copyright (c) 1988,1990,1992,1993,1995,1998,2003,2009, Gaussian, Inc.
                  All Rights Reserved.
  
 This is part of the Gaussian(R) 09 program.  It is based on
 the Gaussian(R) 03 system (copyright 2003, Gaussian, Inc.),
 the Gaussian(R) 98 system (copyright 1998, Gaussian, Inc.),
 the Gaussian(R) 94 system (copyright 1995, Gaussian, Inc.),
 the Gaussian 92(TM) system (copyright 1992, Gaussian, Inc.),
 the Gaussian 90(TM) system (copyright 1990, Gaussian, Inc.),
 the Gaussian 88(TM) system (copyright 1988, Gaussian, Inc.),
 the Gaussian 86(TM) system (copyright 1986, Carnegie Mellon
 University), and the Gaussian 82(TM) system (copyright 1983,
 Carnegie Mellon University). Gaussian is a federally registered
 trademark of Gaussian, Inc.
  
 This software contains proprietary and confidential information,
 including trade secrets, belonging to Gaussian, Inc.
  
 This software is provided under written license and may be
 used, copied, transmitted, or stored only in accord with that
 written license.
  
 The following legend is applicable only to US Government
 contracts under FAR:
  
                    RESTRICTED RIGHTS LEGEND
  
 Use, reproduction and disclosure by the US Government is
 subject to restrictions as set forth in subparagraphs (a)
 and (c) of the Commercial Computer Software - Restricted
 Rights clause in FAR 52.227-19.
  
 Gaussian, Inc.
 340 Quinnipiac St., Bldg. 40, Wallingford CT 06492
  
  
 ---------------------------------------------------------------
 Warning -- This program may not be used in any manner that
 competes with the business of Gaussian, Inc. or will provide
 assistance to any competitor of Gaussian, Inc.  The licensee
 of this program is prohibited from giving any competitor of
 Gaussian, Inc. access to this program.  By using this program,
 the user acknowledges that Gaussian, Inc. is engaged in the
 business of creating and licensing software in the field of
 computational chemistry and represents and warrants to the
 licensee that it is not a competitor of Gaussian, Inc. and that
 it will not use this program in any manner prohibited above.
 ---------------------------------------------------------------
  

 Cite this work as:
 Gaussian 09, Revision A.01,
 M. J. Frisch, G. W. Trucks, H. B. Schlegel, G. E. Scuseria, 
 M. A. Robb, J. R. Cheeseman, G. Scalmani, V. Barone, B. Mennucci, 
 G. A. Petersson, H. Nakatsuji, M. Caricato, X. Li, H. P. Hratchian, 
 A. F. Izmaylov, J. Bloino, G. Zheng, J. L. Sonnenberg, M. Hada, 
 M. Ehara, K. Toyota, R. Fukuda, J. Hasegawa, M. Ishida, T. Nakajima, 
 Y. Honda, O. Kitao, H. Nakai, T. Vreven, J. A. Montgomery, Jr., 
 J. E. Peralta, F. Ogliaro, M. Bearpark, J. J. Heyd, E. Brothers, 
 K. N. Kudin, V. N. Staroverov, R. Kobayashi, J. Normand, 
 K. Raghavachari, A. Rendell, J. C. Burant, S. S. Iyengar, J. Tomasi, 
 M. Cossi, N. Rega, J. M. Millam, M. Klene, J. E. Knox, J. B. Cross, 
 V. Bakken, C. Adamo, J. Jaramillo, R. Gomperts, R. E. Stratmann, 
 O. Yazyev, A. J. Austin, R. Cammi, C. Pomelli, J. W. Ochterski, 
 R. L. Martin, K. Morokuma, V. G. Zakrzewski, G. A. Voth, 
 P. Salvador, J. J. Dannenberg, S. Dapprich, A. D. Daniels, 
 O. Farkas, J. B. Foresman, J. V. Ortiz, J. Cioslowski, 
 and D. J. Fox, Gaussian, Inc., Wallingford CT, 2009.
 
 ******************************************
 Gaussian 09:  EM64L-G09RevA.01  8-May-2009
                14-Sep-2015 
 ******************************************
 %mem=3GB
 %nprocshared=2
 Will use up to    2 processors via shared memory.
 %chk=C6H14_3_00_1_opt_PM6.chk
 ----------
 #p PM6 opt
 ----------
 1/14=-1,18=20,19=15,26=1,38=1/1,3;
 2/9=110,12=2,17=6,18=5,40=1/2;
 3/5=2,16=1,25=1,41=3900000,71=1/1,2,3;
 4/35=1/1;
 5/5=2,35=1,38=5/2;
 6/7=2,8=2,9=2,10=2,28=1/1;
 7//1,2,3,16;
 1/14=-1,18=20,19=15/3(2);
 2/9=110/2;
 99//99;
 2/9=110/2;
 3/5=2,16=1,25=1,41=3900000,71=1,135=20/1,2,3;
 4/5=5,16=3,35=1/1;
 5/5=2,35=1,38=5/2;
 7//1,2,3,16;
 1/14=-1,18=20,19=15/3(-5);
 2/9=110/2;
 6/7=2,8=2,9=2,10=2,19=2,28=1/1;
 99/9=1/99;
 Leave Link    1 at Mon Sep 14 19:12:18 2015, MaxMem=  402653184 cpu:       0.0
 (Enter /share/apps/g09/l101.exe)
 ----------------------------------
 using PM6 to do opt and freq calc.
 ----------------------------------
 Symbolic Z-matrix:
 Charge =  0 Multiplicity = 1
 C                    -2.5511   -0.242    -0.3718 
 H                    -2.4303   -0.3363   -1.475 
 H                    -2.8437    0.8016   -0.1213 
 H                    -3.3749   -0.9173   -0.0468 
 C                    -1.2577   -0.6384    0.343 
 H                    -1.3885   -0.4821    1.4393 
 H                    -1.1271   -1.7328    0.1726 
 C                     0.0078    0.1068   -0.1474 
 H                     0.0456    0.021    -1.2593 
 C                     1.2724   -0.5828    0.4192 
 H                     1.2293   -1.6709    0.1779 
 H                     1.2927   -0.4839    1.5297 
 C                     2.596    -0.0637   -0.1462 
 H                     2.8054    0.9671    0.2167 
 H                     3.4276   -0.7227    0.1922 
 H                     2.5721   -0.0655   -1.2596 
 C                    -0.0373    1.6037    0.2119 
 H                    -0.9381    2.0907   -0.2215 
 H                    -0.0516    1.741     1.3173 
 H                     0.8455    2.1368   -0.2049 
 
 NAtoms=     20 NQM=     20 NQMF=      0 NMic=      0 NMicF=      0 NTot=     20.
                    Isotopes and Nuclear Properties:
 (Nuclear quadrupole moments (NQMom) in fm**2, nuclear magnetic moments (NMagM)
  in nuclear magnetons)

  Atom         1           2           3           4           5           6           7           8           9          10
 IAtWgt=          12           1           1           1          12           1           1          12           1          12
 AtmWgt=  12.0000000   1.0078250   1.0078250   1.0078250  12.0000000   1.0078250   1.0078250  12.0000000   1.0078250  12.0000000
 NucSpn=           0           1           1           1           0           1           1           0           1           0
 AtZEff=   0.0000000   0.0000000   0.0000000   0.0000000   0.0000000   0.0000000   0.0000000   0.0000000   0.0000000   0.0000000
 NQMom=    0.0000000   0.0000000   0.0000000   0.0000000   0.0000000   0.0000000   0.0000000   0.0000000   0.0000000   0.0000000
 NMagM=    0.0000000   2.7928460   2.7928460   2.7928460   0.0000000   2.7928460   2.7928460   0.0000000   2.7928460   0.0000000

  Atom        11          12          13          14          15          16          17          18          19          20
 IAtWgt=           1           1          12           1           1           1          12           1           1           1
 AtmWgt=   1.0078250   1.0078250  12.0000000   1.0078250   1.0078250   1.0078250  12.0000000   1.0078250   1.0078250   1.0078250
 NucSpn=           1           1           0           1           1           1           0           1           1           1
 AtZEff=   0.0000000   0.0000000   0.0000000   0.0000000   0.0000000   0.0000000   0.0000000   0.0000000   0.0000000   0.0000000
 NQMom=    0.0000000   0.0000000   0.0000000   0.0000000   0.0000000   0.0000000   0.0000000   0.0000000   0.0000000   0.0000000
 NMagM=    2.7928460   2.7928460   0.0000000   2.7928460   2.7928460   2.7928460   0.0000000   2.7928460   2.7928460   2.7928460
 Leave Link  101 at Mon Sep 14 19:12:20 2015, MaxMem=  402653184 cpu:       0.2
 (Enter /share/apps/g09/l103.exe)

 GradGradGradGradGradGradGradGradGradGradGradGradGradGradGradGradGradGrad
 Berny optimization.
 Initialization pass.
                           ----------------------------
                           !    Initial Parameters    !
                           ! (Angstroms and Degrees)  !
 --------------------------                            --------------------------
 ! Name  Definition              Value          Derivative Info.                !
 --------------------------------------------------------------------------------
 ! R1    R(1,2)                  1.1138         estimate D2E/DX2                !
 ! R2    R(1,3)                  1.1124         estimate D2E/DX2                !
 ! R3    R(1,4)                  1.1137         estimate D2E/DX2                !
 ! R4    R(1,5)                  1.53           estimate D2E/DX2                !
 ! R5    R(5,6)                  1.1151         estimate D2E/DX2                !
 ! R6    R(5,7)                  1.1153         estimate D2E/DX2                !
 ! R7    R(5,8)                  1.5483         estimate D2E/DX2                !
 ! R8    R(8,9)                  1.1158         estimate D2E/DX2                !
 ! R9    R(8,10)                 1.5478         estimate D2E/DX2                !
 ! R10   R(8,17)                 1.5401         estimate D2E/DX2                !
 ! R11   R(10,11)                1.1154         estimate D2E/DX2                !
 ! R12   R(10,12)                1.1151         estimate D2E/DX2                !
 ! R13   R(10,13)                1.5301         estimate D2E/DX2                !
 ! R14   R(13,14)                1.1127         estimate D2E/DX2                !
 ! R15   R(13,15)                1.1137         estimate D2E/DX2                !
 ! R16   R(13,16)                1.1137         estimate D2E/DX2                !
 ! R17   R(17,18)                1.112          estimate D2E/DX2                !
 ! R18   R(17,19)                1.114          estimate D2E/DX2                !
 ! R19   R(17,20)                1.1123         estimate D2E/DX2                !
 ! A1    A(2,1,3)              109.3295         estimate D2E/DX2                !
 ! A2    A(2,1,4)              108.5382         estimate D2E/DX2                !
 ! A3    A(2,1,5)              110.4335         estimate D2E/DX2                !
 ! A4    A(3,1,4)              107.9733         estimate D2E/DX2                !
 ! A5    A(3,1,5)              111.1128         estimate D2E/DX2                !
 ! A6    A(4,1,5)              109.3827         estimate D2E/DX2                !
 ! A7    A(1,5,6)              108.8952         estimate D2E/DX2                !
 ! A8    A(1,5,7)              106.3705         estimate D2E/DX2                !
 ! A9    A(1,5,8)              114.7253         estimate D2E/DX2                !
 ! A10   A(6,5,7)              107.5477         estimate D2E/DX2                !
 ! A11   A(6,5,8)              109.865          estimate D2E/DX2                !
 ! A12   A(7,5,8)              109.1588         estimate D2E/DX2                !
 ! A13   A(5,8,9)              107.8358         estimate D2E/DX2                !
 ! A14   A(5,8,10)             109.7187         estimate D2E/DX2                !
 ! A15   A(5,8,17)             111.714          estimate D2E/DX2                !
 ! A16   A(9,8,10)             107.6277         estimate D2E/DX2                !
 ! A17   A(9,8,17)             107.951          estimate D2E/DX2                !
 ! A18   A(10,8,17)            111.8118         estimate D2E/DX2                !
 ! A19   A(8,10,11)            108.897          estimate D2E/DX2                !
 ! A20   A(8,10,12)            109.8717         estimate D2E/DX2                !
 ! A21   A(8,10,13)            114.8566         estimate D2E/DX2                !
 ! A22   A(11,10,12)           107.6187         estimate D2E/DX2                !
 ! A23   A(11,10,13)           106.5265         estimate D2E/DX2                !
 ! A24   A(12,10,13)           108.7944         estimate D2E/DX2                !
 ! A25   A(10,13,14)           110.8901         estimate D2E/DX2                !
 ! A26   A(10,13,15)           109.4454         estimate D2E/DX2                !
 ! A27   A(10,13,16)           110.5076         estimate D2E/DX2                !
 ! A28   A(14,13,15)           107.9715         estimate D2E/DX2                !
 ! A29   A(14,13,16)           109.3662         estimate D2E/DX2                !
 ! A30   A(15,13,16)           108.5932         estimate D2E/DX2                !
 ! A31   A(8,17,18)            111.0069         estimate D2E/DX2                !
 ! A32   A(8,17,19)            110.5897         estimate D2E/DX2                !
 ! A33   A(8,17,20)            110.8039         estimate D2E/DX2                !
 ! A34   A(18,17,19)           108.807          estimate D2E/DX2                !
 ! A35   A(18,17,20)           106.6779         estimate D2E/DX2                !
 ! A36   A(19,17,20)           108.8409         estimate D2E/DX2                !
 ! D1    D(2,1,5,6)            176.9621         estimate D2E/DX2                !
 ! D2    D(2,1,5,7)            -67.3998         estimate D2E/DX2                !
 ! D3    D(2,1,5,8)             53.3872         estimate D2E/DX2                !
 ! D4    D(3,1,5,6)             55.4621         estimate D2E/DX2                !
 ! D5    D(3,1,5,7)            171.1002         estimate D2E/DX2                !
 ! D6    D(3,1,5,8)            -68.1128         estimate D2E/DX2                !
 ! D7    D(4,1,5,6)            -63.6485         estimate D2E/DX2                !
 ! D8    D(4,1,5,7)             51.9896         estimate D2E/DX2                !
 ! D9    D(4,1,5,8)            172.7767         estimate D2E/DX2                !
 ! D10   D(1,5,8,9)            -50.9205         estimate D2E/DX2                !
 ! D11   D(1,5,8,10)          -167.8735         estimate D2E/DX2                !
 ! D12   D(1,5,8,17)            67.5447         estimate D2E/DX2                !
 ! D13   D(6,5,8,9)           -173.9763         estimate D2E/DX2                !
 ! D14   D(6,5,8,10)            69.0707         estimate D2E/DX2                !
 ! D15   D(6,5,8,17)           -55.5112         estimate D2E/DX2                !
 ! D16   D(7,5,8,9)             68.3199         estimate D2E/DX2                !
 ! D17   D(7,5,8,10)           -48.6331         estimate D2E/DX2                !
 ! D18   D(7,5,8,17)          -173.2149         estimate D2E/DX2                !
 ! D19   D(5,8,10,11)           52.5254         estimate D2E/DX2                !
 ! D20   D(5,8,10,12)          -65.1141         estimate D2E/DX2                !
 ! D21   D(5,8,10,13)          171.8623         estimate D2E/DX2                !
 ! D22   D(9,8,10,11)          -64.5581         estimate D2E/DX2                !
 ! D23   D(9,8,10,12)          177.8025         estimate D2E/DX2                !
 ! D24   D(9,8,10,13)           54.7788         estimate D2E/DX2                !
 ! D25   D(17,8,10,11)         177.0505         estimate D2E/DX2                !
 ! D26   D(17,8,10,12)          59.4111         estimate D2E/DX2                !
 ! D27   D(17,8,10,13)         -63.6126         estimate D2E/DX2                !
 ! D28   D(5,8,17,18)          -57.9285         estimate D2E/DX2                !
 ! D29   D(5,8,17,19)           62.9456         estimate D2E/DX2                !
 ! D30   D(5,8,17,20)         -176.2725         estimate D2E/DX2                !
 ! D31   D(9,8,17,18)           60.4679         estimate D2E/DX2                !
 ! D32   D(9,8,17,19)         -178.6579         estimate D2E/DX2                !
 ! D33   D(9,8,17,20)          -57.876          estimate D2E/DX2                !
 ! D34   D(10,8,17,18)         178.6666         estimate D2E/DX2                !
 ! D35   D(10,8,17,19)         -60.4593         estimate D2E/DX2                !
 ! D36   D(10,8,17,20)          60.3227         estimate D2E/DX2                !
 ! D37   D(8,10,13,14)          70.033          estimate D2E/DX2                !
 ! D38   D(8,10,13,15)        -170.9561         estimate D2E/DX2                !
 ! D39   D(8,10,13,16)         -51.4139         estimate D2E/DX2                !
 ! D40   D(11,10,13,14)       -169.3183         estimate D2E/DX2                !
 ! D41   D(11,10,13,15)        -50.3074         estimate D2E/DX2                !
 ! D42   D(11,10,13,16)         69.2348         estimate D2E/DX2                !
 ! D43   D(12,10,13,14)        -53.5658         estimate D2E/DX2                !
 ! D44   D(12,10,13,15)         65.4451         estimate D2E/DX2                !
 ! D45   D(12,10,13,16)       -175.0127         estimate D2E/DX2                !
 --------------------------------------------------------------------------------
 Trust Radius=3.00D-01 FncErr=1.00D-07 GrdErr=1.00D-07
 Number of steps in this run= 110 maximum allowed number of steps= 120.
 GradGradGradGradGradGradGradGradGradGradGradGradGradGradGradGradGradGrad

 Leave Link  103 at Mon Sep 14 19:12:20 2015, MaxMem=  402653184 cpu:       0.0
 (Enter /share/apps/g09/l202.exe)
                          Input orientation:                          
 ---------------------------------------------------------------------
 Center     Atomic      Atomic             Coordinates (Angstroms)
 Number     Number       Type             X           Y           Z
 ---------------------------------------------------------------------
      1          6           0       -2.551100   -0.242000   -0.371800
      2          1           0       -2.430300   -0.336300   -1.475000
      3          1           0       -2.843700    0.801600   -0.121300
      4          1           0       -3.374900   -0.917300   -0.046800
      5          6           0       -1.257700   -0.638400    0.343000
      6          1           0       -1.388500   -0.482100    1.439300
      7          1           0       -1.127100   -1.732800    0.172600
      8          6           0        0.007800    0.106800   -0.147400
      9          1           0        0.045600    0.021000   -1.259300
     10          6           0        1.272400   -0.582800    0.419200
     11          1           0        1.229300   -1.670900    0.177900
     12          1           0        1.292700   -0.483900    1.529700
     13          6           0        2.596000   -0.063700   -0.146200
     14          1           0        2.805400    0.967100    0.216700
     15          1           0        3.427600   -0.722700    0.192200
     16          1           0        2.572100   -0.065500   -1.259600
     17          6           0       -0.037300    1.603700    0.211900
     18          1           0       -0.938100    2.090700   -0.221500
     19          1           0       -0.051600    1.741000    1.317300
     20          1           0        0.845500    2.136800   -0.204900
 ---------------------------------------------------------------------
                    Distance matrix (angstroms):
                    1          2          3          4          5
     1  C    0.000000
     2  H    1.113793   0.000000
     3  H    1.112414   1.816100   0.000000
     4  H    1.113688   1.808199   1.800650   0.000000
     5  C    1.530018   2.184349   2.191933   2.170775   0.000000
     6  H    2.165495   3.098346   2.490174   2.518666   1.115084
     7  H    2.132283   2.522524   3.075106   2.401204   1.115260
     8  C    2.592294   2.811261   2.935044   3.535755   1.548323
     9  H    2.756751   2.510831   3.201942   3.748384   2.168125
    10  C    3.919308   4.166383   4.376184   4.682568   2.531858
    11  H    4.078646   4.231537   4.774108   4.670874   2.697866
    12  H    4.295232   4.786516   4.635528   4.945673   2.817209
    13  C    5.155126   5.206123   5.508149   6.032426   3.926907
    14  H    5.522712   5.654490   5.661622   6.466568   4.370625
    15  H    6.024452   6.102774   6.461500   6.809478   4.688484
    16  H    5.202549   5.014353   5.601650   6.128887   4.190932
    17  C    3.172776   3.512219   2.937732   4.190697   2.556086
    18  H    2.840044   3.112596   2.302853   3.875123   2.805137
    19  H    3.610104   4.215487   3.278394   4.468965   2.839979
    20  H    4.150113   4.296539   3.924276   5.211938   3.524965
                    6          7          8          9         10
     6  H    0.000000
     7  H    1.799197   0.000000
     8  C    2.194100   2.185069   0.000000
     9  H    3.097127   2.549780   1.115846   0.000000
    10  C    2.851514   2.672248   1.547836   2.164942   0.000000
    11  H    3.139626   2.357219   2.181307   2.515793   1.115368
    12  H    2.682724   3.042516   2.193755   3.096563   1.115080
    13  C    4.308725   4.092554   2.593810   2.784009   1.530052
    14  H    4.602578   4.770321   2.949449   3.269584   2.189357
    15  H    4.980760   4.665402   3.535312   3.754712   2.171633
    16  H    4.810818   4.302925   2.800413   2.527980   2.185221
    17  C    2.771789   3.510191   1.540078   2.162462   2.557160
    18  H    3.095225   3.848401   2.199108   2.515622   3.527663
    19  H    2.596990   3.812391   2.195332   3.099470   2.821277
    20  H    3.814812   4.359755   2.196804   2.495638   2.822759
                   11         12         13         14         15
    11  H    0.000000
    12  H    1.800098   0.000000
    13  C    2.134479   2.164209   0.000000
    14  H    3.073213   2.473385   1.112696   0.000000
    15  H    2.394120   2.530559   1.113712   1.800877   0.000000
    16  H    2.539060   3.097114   1.113658   1.816632   1.808733
    17  C    3.511187   2.804206   3.137312   2.913113   4.173495
    18  H    4.359676   3.830370   4.139683   3.932975   5.210154
    19  H    3.818376   2.608148   3.522579   3.157957   4.409138
    20  H    3.846091   3.174412   2.812454   2.321024   3.873199
                   16         17         18         19         20
    16  H    0.000000
    17  C    3.429360   0.000000
    18  H    4.248335   1.111956   0.000000
    19  H    4.097274   1.113986   1.809994   0.000000
    20  H    2.990596   1.112319   1.784273   1.810674   0.000000
 Stoichiometry    C6H14
 Framework group  C1[X(C6H14)]
 Deg. of freedom    54
 Full point group                 C1      NOp   1
 Largest Abelian subgroup         C1      NOp   1
 Largest concise Abelian subgroup C1      NOp   1
                         Standard orientation:                         
 ---------------------------------------------------------------------
 Center     Atomic      Atomic             Coordinates (Angstroms)
 Number     Number       Type             X           Y           Z
 ---------------------------------------------------------------------
      1          6           0       -2.579716   -0.194088   -0.316016
      2          1           0       -2.508096   -0.266525   -1.425141
      3          1           0       -2.825065    0.852684   -0.030465
      4          1           0       -3.412422   -0.848455    0.028522
      5          6           0       -1.272442   -0.650856    0.334639
      6          1           0       -1.352169   -0.515970    1.438660
      7          1           0       -1.187311   -1.744761    0.134818
      8          6           0       -0.003098    0.062228   -0.192220
      9          1           0       -0.014419    0.001307   -1.306344
     10          6           0        1.259040   -0.683035    0.305163
     11          1           0        1.168008   -1.763081    0.041994
     12          1           0        1.328775   -0.610965    1.415724
     13          6           0        2.575396   -0.196071   -0.304043
     14          1           0        2.835520    0.818222    0.072306
     15          1           0        3.396783   -0.890697   -0.015647
     16          1           0        2.505336   -0.170932   -1.415211
     17          6           0        0.019027    1.550953    0.201542
     18          1           0       -0.881400    2.078306   -0.182612
     19          1           0        0.055343    1.662685    1.309315
     20          1           0        0.901877    2.063392   -0.240315
 ---------------------------------------------------------------------
 Rotational constants (GHZ):      6.3771269      1.8341089      1.5797125
 Leave Link  202 at Mon Sep 14 19:12:21 2015, MaxMem=  402653184 cpu:       0.0
 (Enter /share/apps/g09/l301.exe)
 Standard basis: VSTO-6G (5D, 7F)
 Ernie: Thresh=  0.10000D-02 Tol=  0.10000D-05 Strict=F.
  NNHCO=     0 NNPyr=     0 NCTC=     0               EPep=         0.000000000
    EC=       128.814035214  ECS=         3.132524891   EG=         0.305170465
   EHC=         0.000407808  EAt=       -31.187935768  AtH=         2.796400831
 EPDDG=         0.000000000  ECC=       132.252138377 EAtT=        33.984336599
 There are    38 symmetry adapted basis functions of A   symmetry.
 Integral buffers will be    131072 words long.
 Regular integral format.
 Two-electron integral symmetry is turned off.
    38 basis functions,   228 primitive gaussians,    38 cartesian basis functions
    19 alpha electrons       19 beta electrons
       nuclear repulsion energy       166.2364749764 Hartrees.
 IExCor=    0 DFT=F Ex=HF Corr=None ExCW=0 ScaHFX=  1.000000
 ScaDFX=  1.000000  1.000000  1.000000  1.000000 ScalE2=  1.000000  1.000000
 IRadAn=      0 IRanWt=     -1 IRanGd=            0 ICorTp=0
 Leave Link  301 at Mon Sep 14 19:12:23 2015, MaxMem=  402653184 cpu:       0.1
 (Enter /share/apps/g09/l302.exe)
 Do NDO integrals.
 NPDir=0 NMtPBC=     1 NCelOv=     1 NCel=       1 NClECP=     1 NCelD=      1
         NCelK=      1 NCelE2=     1 NClLst=     1 CellRange=     0.0.
 One-electron integrals computed using PRISM.
 NBasis=    38 RedAO= F  NBF=    38
 NBsUse=    38 1.00D-04 NBFU=    38
 Leave Link  302 at Mon Sep 14 19:12:23 2015, MaxMem=  402653184 cpu:       0.2
 (Enter /share/apps/g09/l303.exe)
 DipDrv:  MaxL=1.
 Leave Link  303 at Mon Sep 14 19:12:25 2015, MaxMem=  402653184 cpu:       0.0
 (Enter /share/apps/g09/l401.exe)
 Simple Huckel Guess.
 Initial guess orbital symmetries:
       Occupied  (A) (A) (A) (A) (A) (A) (A) (A) (A) (A) (A) (A)
                 (A) (A) (A) (A) (A) (A) (A)
       Virtual   (A) (A) (A) (A) (A) (A) (A) (A) (A) (A) (A) (A)
                 (A) (A) (A) (A) (A) (A) (A)
 The electronic state of the initial guess is 1-A.
 Leave Link  401 at Mon Sep 14 19:12:25 2015, MaxMem=  402653184 cpu:       0.1
 (Enter /share/apps/g09/l502.exe)
 Closed shell SCF:
 Requested convergence on RMS density matrix=1.00D-08 within 128 cycles.
 Requested convergence on MAX density matrix=1.00D-06.
 Requested convergence on             energy=1.00D-06.
 No special actions if energy rises.
 Using DIIS extrapolation, IDIIS=  1040.
 Overlap will be assumed to be unity.
 Two-electron integral symmetry not used.
 Keep J ints in memory in canonical form, NReq=884654.
 IEnd=       81865 IEndB=       81865 NGot=   402653184 MDV=   402586639
 LenX=   402586639 LenY=   402584754
 Symmetry not used in FoFDir.
 MinBra= 0 MaxBra= 1 Meth=40.
 IRaf=       0 NMat=   1 IRICut=       1 DoRegI=T DoRafI=F ISym2E= 0 JSym2E=0.

 Cycle   1  Pass 1  IDiag  1:
 E= 0.729719766501375E-01
 DIIS: error= 2.20D-02 at cycle   1 NSaved=   1.
 NSaved= 1 IEnMin= 1 EnMin= 0.729719766501375E-01 IErMin= 1 ErrMin= 2.20D-02
 ErrMax= 2.20D-02 EMaxC= 1.00D-01 BMatC= 4.37D-02 BMatP= 4.37D-02
 IDIUse=3 WtCom= 7.80D-01 WtEn= 2.20D-01
 Coeff-Com:  0.100D+01
 Coeff-En:   0.100D+01
 Coeff:      0.100D+01
 GapD=    2.000 DampG=2.000 DampE=0.500 DampFc=1.0000 IDamp=-1.
 RMSDP=8.38D-03 MaxDP=6.92D-02              OVMax= 0.00D+00

 Cycle   2  Pass 1  IDiag  1:
 E=-0.427992858356276E-01 Delta-E=       -0.115771262486 Rises=F Damp=F
 DIIS: error= 5.31D-03 at cycle   2 NSaved=   2.
 NSaved= 2 IEnMin= 2 EnMin=-0.427992858356276E-01 IErMin= 2 ErrMin= 5.31D-03
 ErrMax= 5.31D-03 EMaxC= 1.00D-01 BMatC= 2.98D-03 BMatP= 4.37D-02
 IDIUse=3 WtCom= 9.47D-01 WtEn= 5.31D-02
 Coeff-Com: -0.318D+00 0.132D+01
 Coeff-En:   0.000D+00 0.100D+01
 Coeff:     -0.301D+00 0.130D+01
 RMSDP=3.07D-03 MaxDP=2.11D-02 DE=-1.16D-01 OVMax= 0.00D+00

 Cycle   3  Pass 1  IDiag  3:
 E=-0.527478377817943E-01 Delta-E=       -0.009948551946 Rises=F Damp=F
 DIIS: error= 1.57D-03 at cycle   3 NSaved=   3.
 NSaved= 3 IEnMin= 3 EnMin=-0.527478377817943E-01 IErMin= 3 ErrMin= 1.57D-03
 ErrMax= 1.57D-03 EMaxC= 1.00D-01 BMatC= 1.25D-04 BMatP= 2.98D-03
 IDIUse=3 WtCom= 9.84D-01 WtEn= 1.57D-02
 Coeff-Com:  0.232D+00-0.102D+01 0.179D+01
 Coeff-En:   0.000D+00 0.000D+00 0.100D+01
 Coeff:      0.229D+00-0.101D+01 0.178D+01
 Gap=     0.557 Goal=   None    Shift=    0.000
 RMSDP=1.09D-03 MaxDP=1.12D-02 DE=-9.95D-03 OVMax= 0.00D+00

 Cycle   4  Pass 1  IDiag  3:
 E=-0.535438474944669E-01 Delta-E=       -0.000796009713 Rises=F Damp=F
 DIIS: error= 5.00D-04 at cycle   4 NSaved=   4.
 NSaved= 4 IEnMin= 4 EnMin=-0.535438474944669E-01 IErMin= 4 ErrMin= 5.00D-04
 ErrMax= 5.00D-04 EMaxC= 1.00D-01 BMatC= 9.33D-06 BMatP= 1.25D-04
 IDIUse=3 WtCom= 9.95D-01 WtEn= 5.00D-03
 Coeff-Com: -0.111D+00 0.497D+00-0.110D+01 0.171D+01
 Coeff-En:   0.000D+00 0.000D+00 0.000D+00 0.100D+01
 Coeff:     -0.110D+00 0.495D+00-0.109D+01 0.171D+01
 Gap=     0.558 Goal=   None    Shift=    0.000
 RMSDP=3.71D-04 MaxDP=3.97D-03 DE=-7.96D-04 OVMax= 0.00D+00

 Cycle   5  Pass 1  IDiag  3:
 E=-0.536096748880937E-01 Delta-E=       -0.000065827394 Rises=F Damp=F
 DIIS: error= 1.37D-04 at cycle   5 NSaved=   5.
 NSaved= 5 IEnMin= 5 EnMin=-0.536096748880937E-01 IErMin= 5 ErrMin= 1.37D-04
 ErrMax= 1.37D-04 EMaxC= 1.00D-01 BMatC= 4.02D-07 BMatP= 9.33D-06
 IDIUse=3 WtCom= 9.99D-01 WtEn= 1.37D-03
 Coeff-Com:  0.563D-01-0.255D+00 0.591D+00-0.105D+01 0.166D+01
 Coeff-En:   0.000D+00 0.000D+00 0.000D+00 0.000D+00 0.100D+01
 Coeff:      0.562D-01-0.254D+00 0.590D+00-0.105D+01 0.166D+01
 Gap=     0.557 Goal=   None    Shift=    0.000
 RMSDP=6.70D-05 MaxDP=8.32D-04 DE=-6.58D-05 OVMax= 0.00D+00

 Cycle   6  Pass 1  IDiag  3:
 E=-0.536123833734621E-01 Delta-E=       -0.000002708485 Rises=F Damp=F
 DIIS: error= 3.54D-05 at cycle   6 NSaved=   6.
 NSaved= 6 IEnMin= 6 EnMin=-0.536123833734621E-01 IErMin= 6 ErrMin= 3.54D-05
 ErrMax= 3.54D-05 EMaxC= 1.00D-01 BMatC= 3.53D-08 BMatP= 4.02D-07
 IDIUse=1 WtCom= 1.00D+00 WtEn= 0.00D+00
 Coeff-Com: -0.657D-02 0.303D-01-0.772D-01 0.157D+00-0.457D+00 0.135D+01
 Coeff:     -0.657D-02 0.303D-01-0.772D-01 0.157D+00-0.457D+00 0.135D+01
 Gap=     0.558 Goal=   None    Shift=    0.000
 RMSDP=1.88D-05 MaxDP=2.43D-04 DE=-2.71D-06 OVMax= 0.00D+00

 Cycle   7  Pass 1  IDiag  3:
 E=-0.536126299709565E-01 Delta-E=       -0.000000246597 Rises=F Damp=F
 DIIS: error= 1.01D-05 at cycle   7 NSaved=   7.
 NSaved= 7 IEnMin= 7 EnMin=-0.536126299709565E-01 IErMin= 7 ErrMin= 1.01D-05
 ErrMax= 1.01D-05 EMaxC= 1.00D-01 BMatC= 6.28D-09 BMatP= 3.53D-08
 IDIUse=1 WtCom= 1.00D+00 WtEn= 0.00D+00
 Coeff-Com:  0.225D-02-0.106D-01 0.291D-01-0.627D-01 0.218D+00-0.102D+01
 Coeff-Com:  0.184D+01
 Coeff:      0.225D-02-0.106D-01 0.291D-01-0.627D-01 0.218D+00-0.102D+01
 Coeff:      0.184D+01
 Gap=     0.558 Goal=   None    Shift=    0.000
 RMSDP=1.03D-05 MaxDP=1.11D-04 DE=-2.47D-07 OVMax= 0.00D+00

 Cycle   8  Pass 1  IDiag  3:
 E=-0.536126826384304E-01 Delta-E=       -0.000000052667 Rises=F Damp=F
 DIIS: error= 4.18D-06 at cycle   8 NSaved=   8.
 NSaved= 8 IEnMin= 8 EnMin=-0.536126826384304E-01 IErMin= 8 ErrMin= 4.18D-06
 ErrMax= 4.18D-06 EMaxC= 1.00D-01 BMatC= 6.53D-10 BMatP= 6.28D-09
 IDIUse=1 WtCom= 1.00D+00 WtEn= 0.00D+00
 Coeff-Com: -0.741D-03 0.369D-02-0.122D-01 0.300D-01-0.126D+00 0.714D+00
 Coeff-Com: -0.158D+01 0.197D+01
 Coeff:     -0.741D-03 0.369D-02-0.122D-01 0.300D-01-0.126D+00 0.714D+00
 Coeff:     -0.158D+01 0.197D+01
 Gap=     0.558 Goal=   None    Shift=    0.000
 RMSDP=3.72D-06 MaxDP=3.50D-05 DE=-5.27D-08 OVMax= 0.00D+00

 Cycle   9  Pass 1  IDiag  3:
 E=-0.536126881186476E-01 Delta-E=       -0.000000005480 Rises=F Damp=F
 DIIS: error= 7.21D-07 at cycle   9 NSaved=   9.
 NSaved= 9 IEnMin= 9 EnMin=-0.536126881186476E-01 IErMin= 9 ErrMin= 7.21D-07
 ErrMax= 7.21D-07 EMaxC= 1.00D-01 BMatC= 2.26D-11 BMatP= 6.53D-10
 IDIUse=1 WtCom= 1.00D+00 WtEn= 0.00D+00
 Coeff-Com: -0.983D-04 0.334D-03 0.416D-03-0.355D-02 0.281D-01-0.203D+00
 Coeff-Com:  0.490D+00-0.765D+00 0.145D+01
 Coeff:     -0.983D-04 0.334D-03 0.416D-03-0.355D-02 0.281D-01-0.203D+00
 Coeff:      0.490D+00-0.765D+00 0.145D+01
 Gap=     0.558 Goal=   None    Shift=    0.000
 RMSDP=5.45D-07 MaxDP=5.67D-06 DE=-5.48D-09 OVMax= 0.00D+00

 Cycle  10  Pass 1  IDiag  3:
 E=-0.536126882615235E-01 Delta-E=       -0.000000000143 Rises=F Damp=F
 DIIS: error= 1.91D-07 at cycle  10 NSaved=  10.
 NSaved=10 IEnMin=10 EnMin=-0.536126882615235E-01 IErMin=10 ErrMin= 1.91D-07
 ErrMax= 1.91D-07 EMaxC= 1.00D-01 BMatC= 1.07D-12 BMatP= 2.26D-11
 IDIUse=1 WtCom= 1.00D+00 WtEn= 0.00D+00
 Coeff-Com: -0.870D-06 0.487D-04-0.590D-03 0.216D-02-0.126D-01 0.842D-01
 Coeff-Com: -0.201D+00 0.318D+00-0.702D+00 0.151D+01
 Coeff:     -0.870D-06 0.487D-04-0.590D-03 0.216D-02-0.126D-01 0.842D-01
 Coeff:     -0.201D+00 0.318D+00-0.702D+00 0.151D+01
 Gap=     0.558 Goal=   None    Shift=    0.000
 RMSDP=9.53D-08 MaxDP=8.50D-07 DE=-1.43D-10 OVMax= 0.00D+00

 Cycle  11  Pass 1  IDiag  3:
 E=-0.536126882676058E-01 Delta-E=       -0.000000000006 Rises=F Damp=F
 DIIS: error= 4.78D-08 at cycle  11 NSaved=  11.
 NSaved=11 IEnMin=11 EnMin=-0.536126882676058E-01 IErMin=11 ErrMin= 4.78D-08
 ErrMax= 4.78D-08 EMaxC= 1.00D-01 BMatC= 7.21D-14 BMatP= 1.07D-12
 IDIUse=1 WtCom= 1.00D+00 WtEn= 0.00D+00
 Coeff-Com:  0.738D-05-0.541D-04 0.344D-03-0.112D-02 0.602D-02-0.390D-01
 Coeff-Com:  0.923D-01-0.145D+00 0.325D+00-0.881D+00 0.164D+01
 Coeff:      0.738D-05-0.541D-04 0.344D-03-0.112D-02 0.602D-02-0.390D-01
 Coeff:      0.923D-01-0.145D+00 0.325D+00-0.881D+00 0.164D+01
 Gap=     0.558 Goal=   None    Shift=    0.000
 RMSDP=2.83D-08 MaxDP=2.93D-07 DE=-6.08D-12 OVMax= 0.00D+00

 Cycle  12  Pass 1  IDiag  3:
 E=-0.536126882681742E-01 Delta-E=       -0.000000000001 Rises=F Damp=F
 DIIS: error= 6.18D-09 at cycle  12 NSaved=  12.
 NSaved=12 IEnMin=12 EnMin=-0.536126882681742E-01 IErMin=12 ErrMin= 6.18D-09
 ErrMax= 6.18D-09 EMaxC= 1.00D-01 BMatC= 1.73D-15 BMatP= 7.21D-14
 IDIUse=1 WtCom= 1.00D+00 WtEn= 0.00D+00
 Coeff-Com: -0.201D-06 0.797D-05-0.934D-04 0.340D-03-0.197D-02 0.131D-01
 Coeff-Com: -0.312D-01 0.493D-01-0.111D+00 0.314D+00-0.680D+00 0.145D+01
 Coeff:     -0.201D-06 0.797D-05-0.934D-04 0.340D-03-0.197D-02 0.131D-01
 Coeff:     -0.312D-01 0.493D-01-0.111D+00 0.314D+00-0.680D+00 0.145D+01
 Gap=     0.558 Goal=   None    Shift=    0.000
 RMSDP=3.73D-09 MaxDP=4.43D-08 DE=-5.68D-13 OVMax= 0.00D+00

 Cycle  13  Pass 2  IDiag  1:
 RMSDP=3.73D-09 MaxDP=4.43D-08 DE=-5.68D-13 OVMax= 0.00D+00

 SCF Done:  E(RPM6) = -0.536126882682E-01 A.U. after   13 cycles
             Convg  =    0.3732D-08             -V/T =  0.9990
 KE=-5.613636769662D+01 PE=-2.536224235024D+02 EE= 1.434687035343D+02
 Leave Link  502 at Mon Sep 14 19:12:30 2015, MaxMem=  402653184 cpu:       5.3
 (Enter /share/apps/g09/l601.exe)
 Copying SCF densities to generalized density rwf, IOpCl= 0 IROHF=0.

 **********************************************************************

            Population analysis using the SCF density.

 **********************************************************************

 Orbital symmetries:
       Occupied  (A) (A) (A) (A) (A) (A) (A) (A) (A) (A) (A) (A)
                 (A) (A) (A) (A) (A) (A) (A)
       Virtual   (A) (A) (A) (A) (A) (A) (A) (A) (A) (A) (A) (A)
                 (A) (A) (A) (A) (A) (A) (A)
 The electronic state is 1-A.
 Alpha  occ. eigenvalues --   -1.05402  -0.97079  -0.90236  -0.83346  -0.74402
 Alpha  occ. eigenvalues --   -0.69994  -0.58235  -0.56446  -0.53928  -0.52077
 Alpha  occ. eigenvalues --   -0.49534  -0.48606  -0.46973  -0.45660  -0.44920
 Alpha  occ. eigenvalues --   -0.42519  -0.40780  -0.40582  -0.40349
 Alpha virt. eigenvalues --    0.15391   0.15461   0.17042   0.17729   0.18289
 Alpha virt. eigenvalues --    0.21092   0.21138   0.21791   0.21873   0.22199
 Alpha virt. eigenvalues --    0.22442   0.22972   0.22990   0.23672   0.24388
 Alpha virt. eigenvalues --    0.24505   0.24898   0.25149   0.25875
          Condensed to atoms (all electrons):
              1          2          3          4          5          6
     1  C    4.453545   0.000000   0.000000   0.000000   0.000000   0.000000
     2  H    0.000000   0.853845   0.000000   0.000000   0.000000   0.000000
     3  H    0.000000   0.000000   0.853360   0.000000   0.000000   0.000000
     4  H    0.000000   0.000000   0.000000   0.858132   0.000000   0.000000
     5  C    0.000000   0.000000   0.000000   0.000000   4.266194   0.000000
     6  H    0.000000   0.000000   0.000000   0.000000   0.000000   0.868051
     7  H    0.000000   0.000000   0.000000   0.000000   0.000000   0.000000
     8  C    0.000000   0.000000   0.000000   0.000000   0.000000   0.000000
     9  H    0.000000   0.000000   0.000000   0.000000   0.000000   0.000000
    10  C    0.000000   0.000000   0.000000   0.000000   0.000000   0.000000
    11  H    0.000000   0.000000   0.000000   0.000000   0.000000   0.000000
    12  H    0.000000   0.000000   0.000000   0.000000   0.000000   0.000000
    13  C    0.000000   0.000000   0.000000   0.000000   0.000000   0.000000
    14  H    0.000000   0.000000   0.000000   0.000000   0.000000   0.000000
    15  H    0.000000   0.000000   0.000000   0.000000   0.000000   0.000000
    16  H    0.000000   0.000000   0.000000   0.000000   0.000000   0.000000
    17  C    0.000000   0.000000   0.000000   0.000000   0.000000   0.000000
    18  H    0.000000   0.000000   0.000000   0.000000   0.000000   0.000000
    19  H    0.000000   0.000000   0.000000   0.000000   0.000000   0.000000
    20  H    0.000000   0.000000   0.000000   0.000000   0.000000   0.000000
              7          8          9         10         11         12
     1  C    0.000000   0.000000   0.000000   0.000000   0.000000   0.000000
     2  H    0.000000   0.000000   0.000000   0.000000   0.000000   0.000000
     3  H    0.000000   0.000000   0.000000   0.000000   0.000000   0.000000
     4  H    0.000000   0.000000   0.000000   0.000000   0.000000   0.000000
     5  C    0.000000   0.000000   0.000000   0.000000   0.000000   0.000000
     6  H    0.000000   0.000000   0.000000   0.000000   0.000000   0.000000
     7  H    0.872746   0.000000   0.000000   0.000000   0.000000   0.000000
     8  C    0.000000   4.021559   0.000000   0.000000   0.000000   0.000000
     9  H    0.000000   0.000000   0.886501   0.000000   0.000000   0.000000
    10  C    0.000000   0.000000   0.000000   4.266312   0.000000   0.000000
    11  H    0.000000   0.000000   0.000000   0.000000   0.872891   0.000000
    12  H    0.000000   0.000000   0.000000   0.000000   0.000000   0.868323
    13  C    0.000000   0.000000   0.000000   0.000000   0.000000   0.000000
    14  H    0.000000   0.000000   0.000000   0.000000   0.000000   0.000000
    15  H    0.000000   0.000000   0.000000   0.000000   0.000000   0.000000
    16  H    0.000000   0.000000   0.000000   0.000000   0.000000   0.000000
    17  C    0.000000   0.000000   0.000000   0.000000   0.000000   0.000000
    18  H    0.000000   0.000000   0.000000   0.000000   0.000000   0.000000
    19  H    0.000000   0.000000   0.000000   0.000000   0.000000   0.000000
    20  H    0.000000   0.000000   0.000000   0.000000   0.000000   0.000000
             13         14         15         16         17         18
     1  C    0.000000   0.000000   0.000000   0.000000   0.000000   0.000000
     2  H    0.000000   0.000000   0.000000   0.000000   0.000000   0.000000
     3  H    0.000000   0.000000   0.000000   0.000000   0.000000   0.000000
     4  H    0.000000   0.000000   0.000000   0.000000   0.000000   0.000000
     5  C    0.000000   0.000000   0.000000   0.000000   0.000000   0.000000
     6  H    0.000000   0.000000   0.000000   0.000000   0.000000   0.000000
     7  H    0.000000   0.000000   0.000000   0.000000   0.000000   0.000000
     8  C    0.000000   0.000000   0.000000   0.000000   0.000000   0.000000
     9  H    0.000000   0.000000   0.000000   0.000000   0.000000   0.000000
    10  C    0.000000   0.000000   0.000000   0.000000   0.000000   0.000000
    11  H    0.000000   0.000000   0.000000   0.000000   0.000000   0.000000
    12  H    0.000000   0.000000   0.000000   0.000000   0.000000   0.000000
    13  C    4.453178   0.000000   0.000000   0.000000   0.000000   0.000000
    14  H    0.000000   0.853278   0.000000   0.000000   0.000000   0.000000
    15  H    0.000000   0.000000   0.858246   0.000000   0.000000   0.000000
    16  H    0.000000   0.000000   0.000000   0.853666   0.000000   0.000000
    17  C    0.000000   0.000000   0.000000   0.000000   4.482638   0.000000
    18  H    0.000000   0.000000   0.000000   0.000000   0.000000   0.853179
    19  H    0.000000   0.000000   0.000000   0.000000   0.000000   0.000000
    20  H    0.000000   0.000000   0.000000   0.000000   0.000000   0.000000
             19         20
     1  C    0.000000   0.000000
     2  H    0.000000   0.000000
     3  H    0.000000   0.000000
     4  H    0.000000   0.000000
     5  C    0.000000   0.000000
     6  H    0.000000   0.000000
     7  H    0.000000   0.000000
     8  C    0.000000   0.000000
     9  H    0.000000   0.000000
    10  C    0.000000   0.000000
    11  H    0.000000   0.000000
    12  H    0.000000   0.000000
    13  C    0.000000   0.000000
    14  H    0.000000   0.000000
    15  H    0.000000   0.000000
    16  H    0.000000   0.000000
    17  C    0.000000   0.000000
    18  H    0.000000   0.000000
    19  H    0.851295   0.000000
    20  H    0.000000   0.853059
 Mulliken atomic charges:
              1
     1  C   -0.453545
     2  H    0.146155
     3  H    0.146640
     4  H    0.141868
     5  C   -0.266194
     6  H    0.131949
     7  H    0.127254
     8  C   -0.021559
     9  H    0.113499
    10  C   -0.266312
    11  H    0.127109
    12  H    0.131677
    13  C   -0.453178
    14  H    0.146722
    15  H    0.141754
    16  H    0.146334
    17  C   -0.482638
    18  H    0.146821
    19  H    0.148705
    20  H    0.146941
 Sum of Mulliken atomic charges =   0.00000
 Mulliken charges with hydrogens summed into heavy atoms:
              1
     1  C   -0.018883
     5  C   -0.006992
     8  C    0.091940
    10  C   -0.007527
    13  C   -0.018369
    17  C   -0.040170
 Sum of Mulliken charges with hydrogens summed into heavy atoms =   0.00000
 Charge=              0.0000 electrons
 Dipole moment (field-independent basis, Debye):
    X=              0.0001    Y=             -0.0346    Z=              0.0025  Tot=              0.0347
 N-N= 1.662364749764D+02 E-N=-2.536224234386D+02  KE=-5.613636769662D+01
 Leave Link  601 at Mon Sep 14 19:12:30 2015, MaxMem=  402653184 cpu:       0.0
 (Enter /share/apps/g09/l701.exe)
 Compute integral first derivatives.
 ... and contract with generalized density number  0.
 Leave Link  701 at Mon Sep 14 19:12:30 2015, MaxMem=  402653184 cpu:       0.1
 (Enter /share/apps/g09/l702.exe)
 L702 exits ... SP integral derivatives will be done elsewhere.
 Leave Link  702 at Mon Sep 14 19:12:32 2015, MaxMem=  402653184 cpu:       0.0
 (Enter /share/apps/g09/l703.exe)
 Compute integral first derivatives, UseDBF=F ICtDFT=           0.
 Integral derivatives from FoFDir, PRISM(SPDF).
 Calling FoFJK, ICntrl=      2127 FMM=F ISym2X=0 I1Cent= 0 IOpClX= 0 NMat=1 NMatS=1 NMatT=0.
 FoFCou: FMM=F IPFlag=           0 FMFlag=      100000 FMFlg1=         800
         NFxFlg=           0 DoJE=F BraDBF=F KetDBF=F FulRan=T
         Omega=  0.000000  0.000000  1.000000  0.000000  0.000000 ICntrl=    2127 IOpCl=  0
         NMat0=    1 NMatS0=    1 NMatT0=    0 NMatD0=    1 NMtDS0=    0 NMtDT0=    0
         I1Cent=           0 NGrid=           0.
 Symmetry not used in FoFCou.
 Leave Link  703 at Mon Sep 14 19:12:34 2015, MaxMem=  402653184 cpu:       0.0
 (Enter /share/apps/g09/l716.exe)
 Dipole        = 3.57561161D-05-1.36196878D-02 9.87395692D-04
 ***** Axes restored to original set *****
 -------------------------------------------------------------------
 Center     Atomic                   Forces (Hartrees/Bohr)
 Number     Number              X              Y              Z
 -------------------------------------------------------------------
      1        6          -0.000967904    0.002155411   -0.001434436
      2        1          -0.003463469    0.002423169    0.009572713
      3        1           0.001665400   -0.008672823   -0.004220573
      4        1           0.005276675    0.006952212   -0.004467329
      5        6          -0.000598793   -0.002093243    0.001967537
      6        1           0.001983414   -0.001773734   -0.004381520
      7        1           0.002517403    0.002805111    0.003680305
      8        6          -0.000262079    0.003982593   -0.000468751
      9        1          -0.000133664    0.000461148   -0.001373691
     10        6           0.000682932   -0.002319025    0.002165097
     11        1          -0.002754239    0.002427974    0.003644710
     12        1          -0.001450275   -0.001681070   -0.004575525
     13        6           0.000808855    0.002366568   -0.001117009
     14        1          -0.000592372   -0.008361323   -0.005237118
     15        1          -0.005382170    0.007029961   -0.004355365
     16        1           0.002507670    0.001645115    0.010013843
     17        6           0.000101920    0.000515167    0.001413587
     18        1           0.006922603   -0.004185152    0.005063264
     19        1           0.000091575    0.000667355   -0.010967809
     20        1          -0.006953479   -0.004345415    0.005078066
 -------------------------------------------------------------------
 Cartesian Forces:  Max     0.010967809 RMS     0.004227072
 Leave Link  716 at Mon Sep 14 19:12:35 2015, MaxMem=  402653184 cpu:       0.1
 (Enter /share/apps/g09/l103.exe)

 GradGradGradGradGradGradGradGradGradGradGradGradGradGradGradGradGradGrad
 Berny optimization.
 Internal  Forces:  Max     0.010802198 RMS     0.003651266
 Search for a local minimum.
 Step number   1 out of a maximum of  110
 All quantities printed in internal units (Hartrees-Bohrs-Radians)
 RMS Force = .36513D-02 SwitMx=.10000D-02 MixMth= 1
 Mixed Optimization -- RFO/linear search
 Second derivative matrix not updated -- first step.
     Eigenvalues ---    0.00230   0.00230   0.00236   0.00368   0.00369
     Eigenvalues ---    0.03316   0.03325   0.03397   0.04609   0.04771
     Eigenvalues ---    0.04773   0.04852   0.05435   0.05510   0.05542
     Eigenvalues ---    0.05557   0.05753   0.05757   0.08609   0.08627
     Eigenvalues ---    0.12408   0.12422   0.16000   0.16000   0.16000
     Eigenvalues ---    0.16000   0.16000   0.16000   0.16000   0.16000
     Eigenvalues ---    0.16000   0.16609   0.17009   0.21994   0.22001
     Eigenvalues ---    0.27794   0.27836   0.28512   0.29419   0.29422
     Eigenvalues ---    0.31989   0.32038   0.32049   0.32068   0.32068
     Eigenvalues ---    0.32182   0.32202   0.32210   0.32213   0.32216
     Eigenvalues ---    0.32316   0.32346   0.32356   0.323941000.00000
     Eigenvalues --- 1000.000001000.000001000.000001000.000001000.00000
     Eigenvalues --- 1000.000001000.000001000.000001000.000001000.00000
     Eigenvalues --- 1000.000001000.000001000.000001000.000001000.00000
     Eigenvalues --- 1000.000001000.000001000.000001000.000001000.00000
     Eigenvalues --- 1000.000001000.000001000.000001000.000001000.00000
     Eigenvalues --- 1000.000001000.000001000.000001000.000001000.00000
     Eigenvalues --- 1000.000001000.000001000.000001000.000001000.00000
     Eigenvalues --- 1000.000001000.000001000.000001000.000001000.00000
     Eigenvalues --- 1000.000001000.000001000.000001000.000001000.00000
 RFO step:  Lambda=-5.28226727D-03 EMin= 2.30000000D-03
 Linear search not attempted -- first point.
 Iteration  1 RMS(Cart)=  0.03958580 RMS(Int)=  0.00062480
 Iteration  2 RMS(Cart)=  0.00082750 RMS(Int)=  0.00013098
 Iteration  3 RMS(Cart)=  0.00000049 RMS(Int)=  0.00013098
 Variable       Old X    -DE/DX   Delta X   Delta X   Delta X     New X
                                 (Linear)    (Quad)   (Total)
    R1        2.10476  -0.01006   0.00000  -0.03074  -0.03074   2.07402
    R2        2.10216  -0.00952   0.00000  -0.02897  -0.02897   2.07319
    R3        2.10457  -0.00942   0.00000  -0.02878  -0.02878   2.07579
    R4        2.89132  -0.00113   0.00000  -0.00376  -0.00376   2.88756
    R5        2.10720  -0.00479   0.00000  -0.01469  -0.01469   2.09251
    R6        2.10754  -0.00302   0.00000  -0.00927  -0.00927   2.09826
    R7        2.92591  -0.00588   0.00000  -0.02076  -0.02076   2.90515
    R8        2.10864   0.00133   0.00000   0.00409   0.00409   2.11273
    R9        2.92499  -0.00535   0.00000  -0.01885  -0.01885   2.90614
   R10        2.91033  -0.00701   0.00000  -0.02414  -0.02414   2.88619
   R11        2.10774  -0.00305   0.00000  -0.00937  -0.00937   2.09837
   R12        2.10720  -0.00473   0.00000  -0.01452  -0.01452   2.09268
   R13        2.89138  -0.00113   0.00000  -0.00378  -0.00378   2.88760
   R14        2.10269  -0.00957   0.00000  -0.02912  -0.02912   2.07357
   R15        2.10461  -0.00950   0.00000  -0.02902  -0.02902   2.07559
   R16        2.10451  -0.01007   0.00000  -0.03075  -0.03075   2.07376
   R17        2.10129  -0.00941   0.00000  -0.02860  -0.02860   2.07270
   R18        2.10513  -0.01080   0.00000  -0.03302  -0.03302   2.07210
   R19        2.10198  -0.00950   0.00000  -0.02890  -0.02890   2.07308
    A1        1.90816  -0.00303   0.00000  -0.02461  -0.02459   1.88357
    A2        1.89435  -0.00268   0.00000  -0.01272  -0.01298   1.88137
    A3        1.92743   0.00287   0.00000   0.01571   0.01558   1.94301
    A4        1.88449  -0.00200   0.00000  -0.00900  -0.00914   1.87535
    A5        1.93928   0.00133   0.00000   0.00624   0.00619   1.94547
    A6        1.90909   0.00331   0.00000   0.02338   0.02317   1.93225
    A7        1.90058   0.00269   0.00000   0.01044   0.01002   1.91060
    A8        1.85652   0.00486   0.00000   0.04335   0.04333   1.89985
    A9        2.00233  -0.00693   0.00000  -0.02871  -0.02865   1.97368
   A10        1.87706  -0.00213   0.00000  -0.01589  -0.01624   1.86082
   A11        1.91751   0.00132   0.00000  -0.00829  -0.00834   1.90916
   A12        1.90518   0.00047   0.00000   0.00080   0.00113   1.90631
   A13        1.88209   0.00046   0.00000   0.01157   0.01164   1.89373
   A14        1.91495  -0.00018   0.00000  -0.00878  -0.00903   1.90592
   A15        1.94978  -0.00062   0.00000  -0.01244  -0.01264   1.93713
   A16        1.87846   0.00057   0.00000   0.01443   0.01449   1.89295
   A17        1.88410   0.00033   0.00000   0.00840   0.00850   1.89260
   A18        1.95148  -0.00047   0.00000  -0.01089  -0.01111   1.94037
   A19        1.90061   0.00068   0.00000   0.00222   0.00253   1.90314
   A20        1.91762   0.00125   0.00000  -0.00784  -0.00786   1.90976
   A21        2.00463  -0.00687   0.00000  -0.02830  -0.02824   1.97639
   A22        1.87830  -0.00216   0.00000  -0.01655  -0.01688   1.86143
   A23        1.85924   0.00456   0.00000   0.04034   0.04032   1.89956
   A24        1.89882   0.00278   0.00000   0.01157   0.01119   1.91001
   A25        1.93540   0.00179   0.00000   0.00949   0.00940   1.94480
   A26        1.91018   0.00316   0.00000   0.02221   0.02200   1.93219
   A27        1.92872   0.00273   0.00000   0.01468   0.01457   1.94329
   A28        1.88446  -0.00208   0.00000  -0.00909  -0.00926   1.87519
   A29        1.90880  -0.00313   0.00000  -0.02478  -0.02477   1.88403
   A30        1.89531  -0.00267   0.00000  -0.01354  -0.01376   1.88155
   A31        1.93744  -0.00001   0.00000   0.00120   0.00118   1.93862
   A32        1.93015   0.00240   0.00000   0.01156   0.01156   1.94172
   A33        1.93389   0.00048   0.00000   0.00460   0.00458   1.93847
   A34        1.89904  -0.00166   0.00000  -0.01319  -0.01319   1.88585
   A35        1.86188   0.00044   0.00000   0.00836   0.00833   1.87021
   A36        1.89963  -0.00182   0.00000  -0.01337  -0.01338   1.88626
    D1        3.08857  -0.00126   0.00000  -0.01040  -0.01061   3.07796
    D2       -1.17635   0.00010   0.00000  -0.00122  -0.00111  -1.17746
    D3        0.93178  -0.00012   0.00000   0.01291   0.01278   0.94456
    D4        0.96800  -0.00027   0.00000   0.00585   0.00576   0.97375
    D5        2.98626   0.00109   0.00000   0.01503   0.01526   3.00152
    D6       -1.18879   0.00087   0.00000   0.02916   0.02915  -1.15965
    D7       -1.11088  -0.00073   0.00000  -0.00179  -0.00189  -1.11276
    D8        0.90739   0.00063   0.00000   0.00739   0.00762   0.91501
    D9        3.01552   0.00041   0.00000   0.02153   0.02150   3.03702
   D10       -0.88873  -0.00064   0.00000  -0.01123  -0.01115  -0.89988
   D11       -2.92994  -0.00149   0.00000  -0.03022  -0.03012  -2.96006
   D12        1.17888  -0.00031   0.00000  -0.00093  -0.00090   1.17797
   D13       -3.03646  -0.00016   0.00000   0.00245   0.00237  -3.03409
   D14        1.20551  -0.00100   0.00000  -0.01654  -0.01659   1.18892
   D15       -0.96885   0.00017   0.00000   0.01275   0.01262  -0.95623
   D16        1.19241   0.00138   0.00000   0.02607   0.02609   1.21850
   D17       -0.84881   0.00054   0.00000   0.00707   0.00712  -0.84169
   D18       -3.02317   0.00171   0.00000   0.03636   0.03634  -2.98684
   D19        0.91674  -0.00053   0.00000  -0.01513  -0.01517   0.90157
   D20       -1.13645   0.00097   0.00000   0.00809   0.00815  -1.12831
   D21        2.99956   0.00133   0.00000   0.01967   0.01957   3.01913
   D22       -1.12675  -0.00130   0.00000  -0.03233  -0.03235  -1.15910
   D23        3.10324   0.00020   0.00000  -0.00911  -0.00903   3.09421
   D24        0.95607   0.00056   0.00000   0.00247   0.00240   0.95847
   D25        3.09011  -0.00179   0.00000  -0.04535  -0.04533   3.04479
   D26        1.03692  -0.00030   0.00000  -0.02212  -0.02201   1.01491
   D27       -1.11025   0.00007   0.00000  -0.01055  -0.01058  -1.12083
   D28       -1.01104  -0.00004   0.00000  -0.00622  -0.00616  -1.01721
   D29        1.09861  -0.00052   0.00000  -0.01430  -0.01426   1.08435
   D30       -3.07654  -0.00089   0.00000  -0.02037  -0.02033  -3.09686
   D31        1.05536   0.00037   0.00000   0.00595   0.00596   1.06133
   D32       -3.11817  -0.00011   0.00000  -0.00213  -0.00213  -3.12030
   D33       -1.01013  -0.00048   0.00000  -0.00819  -0.00820  -1.01833
   D34        3.11832   0.00100   0.00000   0.02255   0.02252   3.14084
   D35       -1.05521   0.00052   0.00000   0.01448   0.01442  -1.04079
   D36        1.05283   0.00015   0.00000   0.00841   0.00835   1.06118
   D37        1.22231  -0.00089   0.00000  -0.02966  -0.02966   1.19265
   D38       -2.98375  -0.00036   0.00000  -0.02100  -0.02097  -3.00471
   D39       -0.89734   0.00002   0.00000  -0.01464  -0.01453  -0.91187
   D40       -2.95516  -0.00102   0.00000  -0.01557  -0.01580  -2.97096
   D41       -0.87803  -0.00050   0.00000  -0.00691  -0.00710  -0.88513
   D42        1.20838  -0.00011   0.00000  -0.00055  -0.00067   1.20771
   D43       -0.93490   0.00021   0.00000  -0.00814  -0.00806  -0.94296
   D44        1.14223   0.00074   0.00000   0.00052   0.00064   1.14287
   D45       -3.05455   0.00112   0.00000   0.00688   0.00707  -3.04748
         Item               Value     Threshold  Converged?
 Maximum Force            0.010802     0.000450     NO 
 RMS     Force            0.003651     0.000300     NO 
 Maximum Displacement     0.146645     0.001800     NO 
 RMS     Displacement     0.039642     0.001200     NO 
 Predicted change in Energy=-2.730007D-03
 GradGradGradGradGradGradGradGradGradGradGradGradGradGradGradGradGradGrad

 Leave Link  103 at Mon Sep 14 19:12:35 2015, MaxMem=  402653184 cpu:       0.1
 (Enter /share/apps/g09/l202.exe)
                          Input orientation:                          
 ---------------------------------------------------------------------
 Center     Atomic      Atomic             Coordinates (Angstroms)
 Number     Number       Type             X           Y           Z
 ---------------------------------------------------------------------
      1          6           0       -2.521199   -0.218145   -0.372440
      2          1           0       -2.419431   -0.309531   -1.461408
      3          1           0       -2.774436    0.824443   -0.143372
      4          1           0       -3.371825   -0.839699   -0.061446
      5          6           0       -1.243460   -0.653547    0.343580
      6          1           0       -1.355752   -0.487452    1.432587
      7          1           0       -1.107077   -1.746287    0.201433
      8          6           0        0.009444    0.082449   -0.158372
      9          1           0        0.046924   -0.000227   -1.272689
     10          6           0        1.261337   -0.595983    0.422591
     11          1           0        1.210996   -1.686054    0.217113
     12          1           0        1.265147   -0.480512    1.523946
     13          6           0        2.566376   -0.045578   -0.150875
     14          1           0        2.743423    0.987130    0.175014
     15          1           0        3.421981   -0.647601    0.183622
     16          1           0        2.556620   -0.056924   -1.248160
     17          6           0       -0.039291    1.562656    0.214817
     18          1           0       -0.932303    2.045029   -0.200957
     19          1           0       -0.055470    1.697915    1.302833
     20          1           0        0.832097    2.098217   -0.181818
 ---------------------------------------------------------------------
                    Distance matrix (angstroms):
                    1          2          3          4          5
     1  C    0.000000
     2  H    1.097524   0.000000
     3  H    1.097082   1.774582   0.000000
     4  H    1.098459   1.774268   1.770015   0.000000
     5  C    1.528030   2.181567   2.182995   2.174543   0.000000
     6  H    2.165390   3.088410   2.493468   2.533922   1.107309
     7  H    2.159696   2.559605   3.083444   2.453587   1.110354
     8  C    2.557407   2.784059   2.881105   3.506099   1.537339
     9  H    2.730053   2.492828   3.148890   3.722858   2.168927
    10  C    3.883608   4.144824   4.315714   4.664749   2.506704
    11  H    4.053592   4.229923   4.724004   4.668636   2.665786
    12  H    4.242821   4.745280   4.560821   4.913653   2.777825
    13  C    5.095320   5.161922   5.411217   5.991733   3.889597
    14  H    5.428502   5.569045   5.529431   6.386664   4.314565
    15  H    5.984565   6.078035   6.377258   6.800939   4.668186
    16  H    5.155300   4.987020   5.515208   6.096514   4.162956
    17  C    3.110625   3.461197   2.855570   4.117452   2.525502
    18  H    2.770550   3.056835   2.210566   3.780527   2.770497
    19  H    3.543676   4.154417   3.201131   4.393057   2.803723
    20  H    4.080008   4.243470   3.825057   5.130185   3.486573
                    6          7          8          9         10
     6  H    0.000000
     7  H    1.778270   0.000000
     8  C    2.172486   2.172637   0.000000
     9  H    3.086002   2.559977   1.118008   0.000000
    10  C    2.807316   2.642252   1.537864   2.168801   0.000000
    11  H    3.082567   2.318908   2.170788   2.533098   1.110411
    12  H    2.622500   2.996443   2.173455   3.088026   1.107398
    13  C    4.252728   4.063348   2.560147   2.758290   1.528050
    14  H    4.534216   4.722141   2.899006   3.215870   2.182686
    15  H    4.940880   4.660451   3.506472   3.732418   2.174432
    16  H    4.762186   4.286950   2.774017   2.510456   2.181686
    17  C    2.723780   3.476989   1.527305   2.159331   2.528740
    18  H    3.043227   3.816613   2.177251   2.508100   3.489385
    19  H    2.546252   3.765832   2.179235   3.086662   2.787611
    20  H    3.752156   4.322903   2.177299   2.491980   2.794328
                   11         12         13         14         15
    11  H    0.000000
    12  H    1.778785   0.000000
    13  C    2.159545   2.165038   0.000000
    14  H    3.081561   2.481711   1.097285   0.000000
    15  H    2.442942   2.544862   1.098353   1.769989   0.000000
    16  H    2.571341   3.087378   1.097387   1.774928   1.774190
    17  C    3.480997   2.754980   3.083772   2.841885   4.106898
    18  H    4.323134   3.765957   4.076015   3.843366   5.133999
    19  H    3.772794   2.557043   3.468013   3.100160   4.341284
    20  H    3.824058   3.122020   2.757633   2.239422   3.792171
                   16         17         18         19         20
    16  H    0.000000
    17  C    3.391474   0.000000
    18  H    4.205642   1.096823   0.000000
    19  H    4.050931   1.096510   1.775023   0.000000
    20  H    2.959003   1.097025   1.765305   1.775446   0.000000
 Stoichiometry    C6H14
 Framework group  C1[X(C6H14)]
 Deg. of freedom    54
 Full point group                 C1      NOp   1
 Largest Abelian subgroup         C1      NOp   1
 Largest concise Abelian subgroup C1      NOp   1
                         Standard orientation:                         
 ---------------------------------------------------------------------
 Center     Atomic      Atomic             Coordinates (Angstroms)
 Number     Number       Type             X           Y           Z
 ---------------------------------------------------------------------
      1          6           0       -2.548956   -0.165253   -0.318266
      2          1           0       -2.495590   -0.221388   -1.413054
      3          1           0       -2.757120    0.876238   -0.043397
      4          1           0       -3.406456   -0.769584    0.007450
      5          6           0       -1.258051   -0.666719    0.327467
      6          1           0       -1.319402   -0.535622    1.425275
      7          1           0       -1.164663   -1.757597    0.142669
      8          6           0       -0.002906    0.045663   -0.202190
      9          1           0       -0.014492    0.001201   -1.319254
     10          6           0        1.248382   -0.692951    0.301549
     11          1           0        1.152777   -1.772895    0.061564
     12          1           0        1.301769   -0.616609    1.405021
     13          6           0        2.546354   -0.165108   -0.308031
     14          1           0        2.771540    0.849193    0.044841
     15          1           0        3.394278   -0.805896   -0.030910
     16          1           0        2.490714   -0.137397   -1.403656
     17          6           0        0.013897    1.512578    0.222708
     18          1           0       -0.878792    2.037930   -0.138031
     19          1           0        0.047439    1.609803    1.314384
     20          1           0        0.885673    2.033366   -0.192323
 ---------------------------------------------------------------------
 Rotational constants (GHZ):      6.5298395      1.8726034      1.6176843
 Leave Link  202 at Mon Sep 14 19:12:38 2015, MaxMem=  402653184 cpu:       0.0
 (Enter /share/apps/g09/l301.exe)
 Standard basis: VSTO-6G (5D, 7F)
 Ernie: Thresh=  0.10000D-02 Tol=  0.10000D-05 Strict=F.
  NNHCO=     0 NNPyr=     0 NCTC=     0               EPep=         0.000000000
    EC=       129.798987562  ECS=         3.234222038   EG=         0.308671735
   EHC=         0.000460166  EAt=       -31.187935768  AtH=         2.796400831
 EPDDG=         0.000000000  ECC=       133.342341502 EAtT=        33.984336599
 There are    38 symmetry adapted basis functions of A   symmetry.
 Integral buffers will be    131072 words long.
 Regular integral format.
 Two-electron integral symmetry is turned off.
    38 basis functions,   228 primitive gaussians,    38 cartesian basis functions
    19 alpha electrons       19 beta electrons
       nuclear repulsion energy       167.3266781005 Hartrees.
 IExCor=    0 DFT=F Ex=HF Corr=None ExCW=0 ScaHFX=  1.000000
 ScaDFX=  1.000000  1.000000  1.000000  1.000000 ScalE2=  1.000000  1.000000
 IRadAn=      0 IRanWt=     -1 IRanGd=            0 ICorTp=0
 Leave Link  301 at Mon Sep 14 19:12:38 2015, MaxMem=  402653184 cpu:       0.1
 (Enter /share/apps/g09/l302.exe)
 Do NDO integrals.
 NPDir=0 NMtPBC=     1 NCelOv=     1 NCel=       1 NClECP=     1 NCelD=      1
         NCelK=      1 NCelE2=     1 NClLst=     1 CellRange=     0.0.
 One-electron integrals computed using PRISM.
 NBasis=    38 RedAO= F  NBF=    38
 NBsUse=    38 1.00D-04 NBFU=    38
 Leave Link  302 at Mon Sep 14 19:12:38 2015, MaxMem=  402653184 cpu:       0.1
 (Enter /share/apps/g09/l303.exe)
 DipDrv:  MaxL=1.
 Leave Link  303 at Mon Sep 14 19:12:39 2015, MaxMem=  402653184 cpu:       0.0
 (Enter /share/apps/g09/l401.exe)
 Initial guess read from the read-write file.
 B after Tr=     0.000000    0.000000    0.000000
         Rot=    1.000000    0.000000    0.000000    0.000000 Ang=   0.00 deg.
 Guess basis will be translated and rotated to current coordinates.
 Initial guess orbital symmetries:
       Occupied  (A) (A) (A) (A) (A) (A) (A) (A) (A) (A) (A) (A)
                 (A) (A) (A) (A) (A) (A) (A)
       Virtual   (A) (A) (A) (A) (A) (A) (A) (A) (A) (A) (A) (A)
                 (A) (A) (A) (A) (A) (A) (A)
 The electronic state of the initial guess is 1-A.
 Leave Link  401 at Mon Sep 14 19:12:40 2015, MaxMem=  402653184 cpu:       0.2
 (Enter /share/apps/g09/l502.exe)
 Closed shell SCF:
 Requested convergence on RMS density matrix=1.00D-08 within 128 cycles.
 Requested convergence on MAX density matrix=1.00D-06.
 Requested convergence on             energy=1.00D-06.
 No special actions if energy rises.
 Using DIIS extrapolation, IDIIS=  1040.
 Overlap will be assumed to be unity.
 Two-electron integral symmetry not used.
 Keep J ints in memory in canonical form, NReq=884654.
 IEnd=       81865 IEndB=       81865 NGot=   402653184 MDV=   402586639
 LenX=   402586639 LenY=   402584754
 Symmetry not used in FoFDir.
 MinBra= 0 MaxBra= 1 Meth=40.
 IRaf=       0 NMat=   1 IRICut=       1 DoRegI=T DoRafI=F ISym2E= 0 JSym2E=0.

 Cycle   1  Pass 1  IDiag  1:
 E=-0.541815739377682E-01
 DIIS: error= 4.15D-03 at cycle   1 NSaved=   1.
 NSaved= 1 IEnMin= 1 EnMin=-0.541815739377682E-01 IErMin= 1 ErrMin= 4.15D-03
 ErrMax= 4.15D-03 EMaxC= 1.00D-01 BMatC= 4.77D-04 BMatP= 4.77D-04
 IDIUse=3 WtCom= 9.59D-01 WtEn= 4.15D-02
 Coeff-Com:  0.100D+01
 Coeff-En:   0.100D+01
 Coeff:      0.100D+01
 GapD=    2.000 DampG=2.000 DampE=1.000 DampFc=2.0000 IDamp=-1.
 RMSDP=1.06D-03 MaxDP=8.86D-03              OVMax= 0.00D+00

 Cycle   2  Pass 1  IDiag  3:
 E=-0.559198802802996E-01 Delta-E=       -0.001738306343 Rises=F Damp=F
 DIIS: error= 1.85D-03 at cycle   2 NSaved=   2.
 NSaved= 2 IEnMin= 2 EnMin=-0.559198802802996E-01 IErMin= 2 ErrMin= 1.85D-03
 ErrMax= 1.85D-03 EMaxC= 1.00D-01 BMatC= 8.13D-05 BMatP= 4.77D-04
 IDIUse=3 WtCom= 9.82D-01 WtEn= 1.85D-02
 Coeff-Com: -0.638D+00 0.164D+01
 Coeff-En:   0.000D+00 0.100D+01
 Coeff:     -0.627D+00 0.163D+01
 Gap=     0.559 Goal=   None    Shift=    0.000
 RMSDP=7.55D-04 MaxDP=6.53D-03 DE=-1.74D-03 OVMax= 0.00D+00

 Cycle   3  Pass 1  IDiag  3:
 E=-0.563170795995802E-01 Delta-E=       -0.000397199319 Rises=F Damp=F
 DIIS: error= 2.05D-04 at cycle   3 NSaved=   3.
 NSaved= 3 IEnMin= 3 EnMin=-0.563170795995802E-01 IErMin= 3 ErrMin= 2.05D-04
 ErrMax= 2.05D-04 EMaxC= 1.00D-01 BMatC= 1.28D-06 BMatP= 8.13D-05
 IDIUse=3 WtCom= 9.98D-01 WtEn= 2.05D-03
 Coeff-Com:  0.230D+00-0.665D+00 0.143D+01
 Coeff-En:   0.000D+00 0.000D+00 0.100D+01
 Coeff:      0.230D+00-0.663D+00 0.143D+01
 Gap=     0.559 Goal=   None    Shift=    0.000
 RMSDP=1.04D-04 MaxDP=8.32D-04 DE=-3.97D-04 OVMax= 0.00D+00

 Cycle   4  Pass 1  IDiag  3:
 E=-0.563236408965224E-01 Delta-E=       -0.000006561297 Rises=F Damp=F
 DIIS: error= 1.49D-05 at cycle   4 NSaved=   4.
 NSaved= 4 IEnMin= 4 EnMin=-0.563236408965224E-01 IErMin= 4 ErrMin= 1.49D-05
 ErrMax= 1.49D-05 EMaxC= 1.00D-01 BMatC= 2.47D-08 BMatP= 1.28D-06
 IDIUse=1 WtCom= 1.00D+00 WtEn= 0.00D+00
 Coeff-Com: -0.101D+00 0.292D+00-0.678D+00 0.149D+01
 Coeff:     -0.101D+00 0.292D+00-0.678D+00 0.149D+01
 Gap=     0.559 Goal=   None    Shift=    0.000
 RMSDP=1.38D-05 MaxDP=1.04D-04 DE=-6.56D-06 OVMax= 0.00D+00

 Cycle   5  Pass 1  IDiag  3:
 E=-0.563237794936526E-01 Delta-E=       -0.000000138597 Rises=F Damp=F
 DIIS: error= 4.72D-06 at cycle   5 NSaved=   5.
 NSaved= 5 IEnMin= 5 EnMin=-0.563237794936526E-01 IErMin= 5 ErrMin= 4.72D-06
 ErrMax= 4.72D-06 EMaxC= 1.00D-01 BMatC= 1.91D-09 BMatP= 2.47D-08
 IDIUse=1 WtCom= 1.00D+00 WtEn= 0.00D+00
 Coeff-Com:  0.492D-01-0.143D+00 0.338D+00-0.905D+00 0.166D+01
 Coeff:      0.492D-01-0.143D+00 0.338D+00-0.905D+00 0.166D+01
 Gap=     0.559 Goal=   None    Shift=    0.000
 RMSDP=4.59D-06 MaxDP=3.63D-05 DE=-1.39D-07 OVMax= 0.00D+00

 Cycle   6  Pass 1  IDiag  3:
 E=-0.563237917760091E-01 Delta-E=       -0.000000012282 Rises=F Damp=F
 DIIS: error= 1.39D-06 at cycle   6 NSaved=   6.
 NSaved= 6 IEnMin= 6 EnMin=-0.563237917760091E-01 IErMin= 6 ErrMin= 1.39D-06
 ErrMax= 1.39D-06 EMaxC= 1.00D-01 BMatC= 1.23D-10 BMatP= 1.91D-09
 IDIUse=1 WtCom= 1.00D+00 WtEn= 0.00D+00
 Coeff-Com: -0.235D-01 0.683D-01-0.161D+00 0.450D+00-0.982D+00 0.165D+01
 Coeff:     -0.235D-01 0.683D-01-0.161D+00 0.450D+00-0.982D+00 0.165D+01
 Gap=     0.559 Goal=   None    Shift=    0.000
 RMSDP=1.17D-06 MaxDP=9.48D-06 DE=-1.23D-08 OVMax= 0.00D+00

 Cycle   7  Pass 1  IDiag  3:
 E=-0.563237925987892E-01 Delta-E=       -0.000000000823 Rises=F Damp=F
 DIIS: error= 3.39D-07 at cycle   7 NSaved=   7.
 NSaved= 7 IEnMin= 7 EnMin=-0.563237925987892E-01 IErMin= 7 ErrMin= 3.39D-07
 ErrMax= 3.39D-07 EMaxC= 1.00D-01 BMatC= 9.71D-12 BMatP= 1.23D-10
 IDIUse=1 WtCom= 1.00D+00 WtEn= 0.00D+00
 Coeff-Com:  0.958D-02-0.279D-01 0.658D-01-0.185D+00 0.423D+00-0.913D+00
 Coeff-Com:  0.163D+01
 Coeff:      0.958D-02-0.279D-01 0.658D-01-0.185D+00 0.423D+00-0.913D+00
 Coeff:      0.163D+01
 Gap=     0.559 Goal=   None    Shift=    0.000
 RMSDP=3.53D-07 MaxDP=2.69D-06 DE=-8.23D-10 OVMax= 0.00D+00

 Cycle   8  Pass 1  IDiag  3:
 E=-0.563237926676265E-01 Delta-E=       -0.000000000069 Rises=F Damp=F
 DIIS: error= 8.81D-08 at cycle   8 NSaved=   8.
 NSaved= 8 IEnMin= 8 EnMin=-0.563237926676265E-01 IErMin= 8 ErrMin= 8.81D-08
 ErrMax= 8.81D-08 EMaxC= 1.00D-01 BMatC= 6.64D-13 BMatP= 9.71D-12
 IDIUse=1 WtCom= 1.00D+00 WtEn= 0.00D+00
 Coeff-Com: -0.275D-02 0.797D-02-0.188D-01 0.532D-01-0.124D+00 0.286D+00
 Coeff-Com: -0.703D+00 0.150D+01
 Coeff:     -0.275D-02 0.797D-02-0.188D-01 0.532D-01-0.124D+00 0.286D+00
 Coeff:     -0.703D+00 0.150D+01
 Gap=     0.559 Goal=   None    Shift=    0.000
 RMSDP=9.21D-08 MaxDP=8.90D-07 DE=-6.88D-11 OVMax= 0.00D+00

 Cycle   9  Pass 1  IDiag  3:
 E=-0.563237926724298E-01 Delta-E=       -0.000000000005 Rises=F Damp=F
 DIIS: error= 5.38D-08 at cycle   9 NSaved=   9.
 NSaved= 9 IEnMin= 9 EnMin=-0.563237926724298E-01 IErMin= 9 ErrMin= 5.38D-08
 ErrMax= 5.38D-08 EMaxC= 1.00D-01 BMatC= 9.28D-14 BMatP= 6.64D-13
 IDIUse=1 WtCom= 1.00D+00 WtEn= 0.00D+00
 Coeff-Com:  0.930D-03-0.270D-02 0.635D-02-0.182D-01 0.431D-01-0.105D+00
 Coeff-Com:  0.324D+00-0.103D+01 0.179D+01
 Coeff:      0.930D-03-0.270D-02 0.635D-02-0.182D-01 0.431D-01-0.105D+00
 Coeff:      0.324D+00-0.103D+01 0.179D+01
 Gap=     0.559 Goal=   None    Shift=    0.000
 RMSDP=3.78D-08 MaxDP=4.42D-07 DE=-4.80D-12 OVMax= 0.00D+00

 Cycle  10  Pass 1  IDiag  3:
 E=-0.563237926732540E-01 Delta-E=       -0.000000000001 Rises=F Damp=F
 DIIS: error= 2.15D-08 at cycle  10 NSaved=  10.
 NSaved=10 IEnMin=10 EnMin=-0.563237926732540E-01 IErMin=10 ErrMin= 2.15D-08
 ErrMax= 2.15D-08 EMaxC= 1.00D-01 BMatC= 1.13D-14 BMatP= 9.28D-14
 IDIUse=1 WtCom= 1.00D+00 WtEn= 0.00D+00
 Coeff-Com: -0.121D-03 0.346D-03-0.809D-03 0.245D-02-0.639D-02 0.180D-01
 Coeff-Com: -0.894D-01 0.411D+00-0.109D+01 0.176D+01
 Coeff:     -0.121D-03 0.346D-03-0.809D-03 0.245D-02-0.639D-02 0.180D-01
 Coeff:     -0.894D-01 0.411D+00-0.109D+01 0.176D+01
 Gap=     0.559 Goal=   None    Shift=    0.000
 RMSDP=1.56D-08 MaxDP=1.90D-07 DE=-8.24D-13 OVMax= 0.00D+00

 Cycle  11  Pass 1  IDiag  3:
 E=-0.563237926735383E-01 Delta-E=        0.000000000000 Rises=F Damp=F
 DIIS: error= 4.10D-09 at cycle  11 NSaved=  11.
 NSaved=11 IEnMin=11 EnMin=-0.563237926735383E-01 IErMin=11 ErrMin= 4.10D-09
 ErrMax= 4.10D-09 EMaxC= 1.00D-01 BMatC= 5.16D-16 BMatP= 1.13D-14
 IDIUse=1 WtCom= 1.00D+00 WtEn= 0.00D+00
 Coeff-Com:  0.716D-05-0.193D-04 0.434D-04-0.184D-03 0.654D-03-0.242D-02
 Coeff-Com:  0.212D-01-0.119D+00 0.367D+00-0.782D+00 0.151D+01
 Coeff:      0.716D-05-0.193D-04 0.434D-04-0.184D-03 0.654D-03-0.242D-02
 Coeff:      0.212D-01-0.119D+00 0.367D+00-0.782D+00 0.151D+01
 Gap=     0.559 Goal=   None    Shift=    0.000
 RMSDP=2.85D-09 MaxDP=3.54D-08 DE=-2.84D-13 OVMax= 0.00D+00

 Cycle  12  Pass 2  IDiag  1:
 RMSDP=2.85D-09 MaxDP=3.54D-08 DE=-2.84D-13 OVMax= 0.00D+00

 SCF Done:  E(RPM6) = -0.563237926735E-01 A.U. after   12 cycles
             Convg  =    0.2854D-08             -V/T =  0.9990
 KE=-5.623822693325D+01 PE=-2.555394333522D+02 EE= 1.443946583923D+02
 Leave Link  502 at Mon Sep 14 19:12:44 2015, MaxMem=  402653184 cpu:       3.7
 (Enter /share/apps/g09/l701.exe)
 Compute integral first derivatives.
 ... and contract with generalized density number  0.
 Leave Link  701 at Mon Sep 14 19:12:46 2015, MaxMem=  402653184 cpu:       0.2
 (Enter /share/apps/g09/l702.exe)
 L702 exits ... SP integral derivatives will be done elsewhere.
 Leave Link  702 at Mon Sep 14 19:12:46 2015, MaxMem=  402653184 cpu:       0.0
 (Enter /share/apps/g09/l703.exe)
 Compute integral first derivatives, UseDBF=F ICtDFT=           0.
 Integral derivatives from FoFDir, PRISM(SPDF).
 Calling FoFJK, ICntrl=      2127 FMM=F ISym2X=0 I1Cent= 0 IOpClX= 0 NMat=1 NMatS=1 NMatT=0.
 FoFCou: FMM=F IPFlag=           0 FMFlag=      100000 FMFlg1=         800
         NFxFlg=           0 DoJE=F BraDBF=F KetDBF=F FulRan=T
         Omega=  0.000000  0.000000  1.000000  0.000000  0.000000 ICntrl=    2127 IOpCl=  0
         NMat0=    1 NMatS0=    1 NMatT0=    0 NMatD0=    1 NMtDS0=    0 NMtDT0=    0
         I1Cent=           0 NGrid=           0.
 Symmetry not used in FoFCou.
 Leave Link  703 at Mon Sep 14 19:12:48 2015, MaxMem=  402653184 cpu:       0.0
 (Enter /share/apps/g09/l716.exe)
 Dipole        =-3.27815530D-04 1.85190830D-02 5.62203533D-03
 ***** Axes restored to original set *****
 -------------------------------------------------------------------
 Center     Atomic                   Forces (Hartrees/Bohr)
 Number     Number              X              Y              Z
 -------------------------------------------------------------------
      1        6          -0.000179026   -0.001076807    0.000246472
      2        1          -0.000755284    0.000428885    0.000996913
      3        1           0.000090960   -0.000616166   -0.000777377
      4        1           0.000773465    0.001059338   -0.000850167
      5        6          -0.004256405   -0.002915907    0.000868445
      6        1          -0.000413446   -0.001301793    0.000226123
      7        1          -0.000487835    0.000801852    0.001124598
      8        6           0.000391987    0.001092861   -0.004416162
      9        1           0.000098572    0.000072708   -0.000587549
     10        6           0.004093962   -0.002500141    0.001051256
     11        1           0.000287924    0.000736484    0.001269074
     12        1           0.000451713   -0.001186922    0.000107624
     13        6           0.000093287   -0.000969662    0.000242567
     14        1           0.000034216   -0.000663208   -0.000901211
     15        1          -0.000726092    0.001060210   -0.000813558
     16        1           0.000649726    0.000371882    0.001035161
     17        6           0.000020111    0.004090253    0.000123130
     18        1           0.000387399    0.000207566    0.000976255
     19        1          -0.000004895    0.001156991   -0.000976774
     20        1          -0.000550338    0.000151576    0.001055179
 -------------------------------------------------------------------
 Cartesian Forces:  Max     0.004416162 RMS     0.001383772
 Leave Link  716 at Mon Sep 14 19:12:48 2015, MaxMem=  402653184 cpu:       0.0
 (Enter /share/apps/g09/l103.exe)

 GradGradGradGradGradGradGradGradGradGradGradGradGradGradGradGradGradGrad
 Berny optimization.
 Using GEDIIS/GDIIS optimizer.
 Internal  Forces:  Max     0.006592867 RMS     0.001200702
 Search for a local minimum.
 Step number   2 out of a maximum of  110
 All quantities printed in internal units (Hartrees-Bohrs-Radians)
 RMS Force = .12007D-02 SwitMx=.10000D-02 MixMth= 1
 Mixed Optimization -- RFO/linear search
 Update second derivatives using D2CorX and points    1    2
 DE= -2.71D-03 DEPred=-2.73D-03 R= 9.93D-01
 SS=  1.41D+00  RLast= 1.85D-01 DXNew= 5.0454D-01 5.5438D-01
 Trust test= 9.93D-01 RLast= 1.85D-01 DXMaxT set to 5.05D-01
 Use linear search instead of GDIIS.
     Eigenvalues ---    0.00229   0.00230   0.00236   0.00368   0.00369
     Eigenvalues ---    0.03434   0.03462   0.03709   0.04580   0.04695
     Eigenvalues ---    0.04779   0.04789   0.05378   0.05400   0.05447
     Eigenvalues ---    0.05448   0.05542   0.05542   0.08385   0.08581
     Eigenvalues ---    0.12221   0.12255   0.14567   0.16000   0.16000
     Eigenvalues ---    0.16000   0.16000   0.16000   0.16000   0.16000
     Eigenvalues ---    0.16061   0.16321   0.16696   0.20694   0.21922
     Eigenvalues ---    0.27062   0.27816   0.28383   0.29420   0.29430
     Eigenvalues ---    0.31963   0.32007   0.32044   0.32068   0.32074
     Eigenvalues ---    0.32181   0.32202   0.32211   0.32212   0.32278
     Eigenvalues ---    0.32328   0.32351   0.32383   0.381201000.00000
     Eigenvalues --- 1000.000001000.000001000.000001000.000001000.00000
     Eigenvalues --- 1000.000001000.000001000.000001000.000001000.00000
     Eigenvalues --- 1000.000001000.000001000.000001000.000001000.00000
     Eigenvalues --- 1000.000001000.000001000.000001000.000001000.00000
     Eigenvalues --- 1000.000001000.000001000.000001000.000001000.00000
     Eigenvalues --- 1000.000001000.000001000.000001000.000001000.00000
     Eigenvalues --- 1000.000001000.000001000.000001000.000001000.00000
     Eigenvalues --- 1000.000001000.000001000.000001000.000001000.00000
     Eigenvalues --- 1000.000001000.000001000.000001000.000001000.00000
 RFO step:  Lambda=-7.32840446D-04 EMin= 2.28972832D-03
 Quartic linear search produced a step of  0.01844.
 Iteration  1 RMS(Cart)=  0.03888483 RMS(Int)=  0.00046573
 Iteration  2 RMS(Cart)=  0.00071529 RMS(Int)=  0.00001145
 Iteration  3 RMS(Cart)=  0.00000021 RMS(Int)=  0.00001145
 Variable       Old X    -DE/DX   Delta X   Delta X   Delta X     New X
                                 (Linear)    (Quad)   (Total)
    R1        2.07402  -0.00109  -0.00057  -0.00692  -0.00749   2.06653
    R2        2.07319  -0.00077  -0.00053  -0.00568  -0.00622   2.06697
    R3        2.07579  -0.00144  -0.00053  -0.00778  -0.00831   2.06747
    R4        2.88756   0.00018  -0.00007   0.00020   0.00013   2.88769
    R5        2.09251   0.00007  -0.00027  -0.00144  -0.00171   2.09080
    R6        2.09826  -0.00099  -0.00017  -0.00419  -0.00436   2.09390
    R7        2.90515   0.00659  -0.00038   0.02172   0.02133   2.92648
    R8        2.11273   0.00058   0.00008   0.00231   0.00239   2.11512
    R9        2.90614   0.00612  -0.00035   0.02017   0.01982   2.92596
   R10        2.88619   0.00573  -0.00045   0.01765   0.01720   2.90339
   R11        2.09837  -0.00097  -0.00017  -0.00413  -0.00431   2.09407
   R12        2.09268  -0.00002  -0.00027  -0.00169  -0.00195   2.09072
   R13        2.88760   0.00014  -0.00007   0.00004  -0.00003   2.88757
   R14        2.07357  -0.00089  -0.00054  -0.00607  -0.00661   2.06696
   R15        2.07559  -0.00139  -0.00054  -0.00767  -0.00821   2.06738
   R16        2.07376  -0.00104  -0.00057  -0.00676  -0.00733   2.06643
   R17        2.07270  -0.00059  -0.00053  -0.00509  -0.00562   2.06708
[...]
 ! D10   D(1,5,8,9)            -48.2477         -DE/DX =    0.0                 !
 ! D11   D(1,5,8,10)          -166.3206         -DE/DX =    0.0                 !
 ! D12   D(1,5,8,17)            70.6793         -DE/DX =    0.0                 !
 ! D13   D(6,5,8,9)           -170.9203         -DE/DX =    0.0                 !
 ! D14   D(6,5,8,10)            71.0068         -DE/DX =    0.0                 !
 ! D15   D(6,5,8,17)           -51.9932         -DE/DX =    0.0                 !
 ! D16   D(7,5,8,9)             73.3751         -DE/DX =    0.0                 !
 ! D17   D(7,5,8,10)           -44.6978         -DE/DX =    0.0                 !
 ! D18   D(7,5,8,17)          -167.6978         -DE/DX =    0.0                 !
 ! D19   D(5,8,10,11)           44.7095         -DE/DX =    0.0                 !
 ! D20   D(5,8,10,12)          -70.9925         -DE/DX =    0.0                 !
 ! D21   D(5,8,10,13)          166.335          -DE/DX =    0.0                 !
 ! D22   D(9,8,10,11)          -73.3615         -DE/DX =    0.0                 !
 ! D23   D(9,8,10,12)          170.9365         -DE/DX =    0.0                 !
 ! D24   D(9,8,10,13)           48.264          -DE/DX =    0.0                 !
 ! D25   D(17,8,10,11)         167.7093         -DE/DX =    0.0                 !
 ! D26   D(17,8,10,12)          52.0073         -DE/DX =    0.0                 !
 ! D27   D(17,8,10,13)         -70.6652         -DE/DX =    0.0                 !
 ! D28   D(5,8,17,18)          -58.9787         -DE/DX =    0.0                 !
 ! D29   D(5,8,17,19)           61.094          -DE/DX =    0.0                 !
 ! D30   D(5,8,17,20)         -178.83           -DE/DX =    0.0                 !
 ! D31   D(9,8,17,18)           59.9232         -DE/DX =    0.0                 !
 ! D32   D(9,8,17,19)         -180.0042         -DE/DX =    0.0                 !
 ! D33   D(9,8,17,20)          -59.9281         -DE/DX =    0.0                 !
 ! D34   D(10,8,17,18)         178.8289         -DE/DX =    0.0                 !
 ! D35   D(10,8,17,19)         -61.0985         -DE/DX =    0.0                 !
 ! D36   D(10,8,17,20)          58.9776         -DE/DX =    0.0                 !
 ! D37   D(8,10,13,14)          61.148          -DE/DX =    0.0                 !
 ! D38   D(8,10,13,15)        -178.9722         -DE/DX =    0.0                 !
 ! D39   D(8,10,13,16)         -58.9765         -DE/DX =    0.0                 !
 ! D40   D(11,10,13,14)       -176.9862         -DE/DX =    0.0                 !
 ! D41   D(11,10,13,15)        -57.1064         -DE/DX =    0.0                 !
 ! D42   D(11,10,13,16)         62.8893         -DE/DX =    0.0                 !
 ! D43   D(12,10,13,14)        -61.5103         -DE/DX =    0.0                 !
 ! D44   D(12,10,13,15)         58.3695         -DE/DX =    0.0                 !
 ! D45   D(12,10,13,16)        178.3651         -DE/DX =    0.0                 !
 --------------------------------------------------------------------------------
 GradGradGradGradGradGradGradGradGradGradGradGradGradGradGradGradGradGrad

 Largest change from initial coordinates is atom   14       0.057 Angstoms.
 Leave Link  103 at Mon Sep 14 19:14:45 2015, MaxMem=  402653184 cpu:       0.0
 (Enter /share/apps/g09/l202.exe)
                          Input orientation:                          
 ---------------------------------------------------------------------
 Center     Atomic      Atomic             Coordinates (Angstroms)
 Number     Number       Type             X           Y           Z
 ---------------------------------------------------------------------
      1          6           0       -2.501431   -0.241236   -0.430719
      2          1           0       -2.386564   -0.414558   -1.506625
      3          1           0       -2.729238    0.822168   -0.293050
      4          1           0       -3.376073   -0.810154   -0.096699
      5          6           0       -1.250000   -0.651943    0.341568
      6          1           0       -1.409661   -0.495125    1.425402
      7          1           0       -1.087001   -1.740478    0.216244
      8          6           0        0.009817    0.116022   -0.118262
      9          1           0        0.056020    0.080281   -1.234443
     10          6           0        1.272716   -0.575199    0.443617
     11          1           0        1.186830   -1.671287    0.308034
     12          1           0        1.334441   -0.411850    1.536461
     13          6           0        2.555211   -0.087170   -0.225913
     14          1           0        2.707585    0.987170   -0.070222
     15          1           0        3.432663   -0.604885    0.176940
     16          1           0        2.537257   -0.261660   -1.307601
     17          6           0       -0.052487    1.585206    0.316814
     18          1           0       -0.935596    2.083909   -0.096612
     19          1           0       -0.099587    1.683479    1.406268
     20          1           0        0.829199    2.137610   -0.025201
 ---------------------------------------------------------------------
                    Distance matrix (angstroms):
                    1          2          3          4          5
     1  C    0.000000
     2  H    1.095814   0.000000
     3  H    1.096210   1.766262   0.000000
     4  H    1.095553   1.767347   1.766756   0.000000
     5  C    1.526822   2.182646   2.182632   2.176533   0.000000
     6  H    2.168318   3.091538   2.535669   2.506554   1.106698
     7  H    2.160301   2.532825   3.086013   2.490640   1.107783
     8  C    2.555705   2.819878   2.834010   3.510345   1.545430
     9  H    2.699981   2.507023   3.032206   3.723788   2.173856
    10  C    3.888468   4.149648   4.302435   4.685978   2.525946
    11  H    4.024185   4.200178   4.681260   4.661056   2.641652
    12  H    4.314257   4.806896   4.624218   5.001480   2.857403
    13  C    5.063132   5.115520   5.362537   5.976582   3.888526
    14  H    5.364027   5.475258   5.443888   6.343656   4.303341
    15  H    5.976199   6.060859   6.342428   6.817324   4.685793
    16  H    5.114461   4.930213   5.471742   6.060908   4.149144
    17  C    3.145159   3.573780   2.849413   4.117642   2.537614
    18  H    2.823077   3.214931   2.201756   3.785701   2.788501
    19  H    3.584397   4.256403   3.247245   4.383204   2.812691
    20  H    4.112961   4.364551   3.803236   5.136024   3.498456
                    6          7          8          9         10
     6  H    0.000000
     7  H    1.765525   0.000000
     8  C    2.184334   2.182085   0.000000
     9  H    3.090968   2.593483   1.117709   0.000000
    10  C    2.857528   2.641560   1.545447   2.173911   0.000000
    11  H    3.061639   2.276734   2.182099   2.593445   1.107776
    12  H    2.747611   3.061308   2.184349   3.091029   1.106707
    13  C    4.314334   4.024256   2.555759   2.700209   1.526838
    14  H    4.624479   4.681988   2.835341   3.034577   2.182630
    15  H    5.001880   4.660309   3.510374   3.723328   2.176549
    16  H    4.806451   4.200506   2.818709   2.505757   2.182689
    17  C    2.720049   3.484323   1.533518   2.164017   2.537635
    18  H    3.031943   3.840148   2.183313   2.508482   3.498477
    19  H    2.542238   3.756943   2.189311   3.093188   2.812746
    20  H    3.748071   4.332399   2.183315   2.508520   2.788518
                   11         12         13         14         15
    11  H    0.000000
    12  H    1.765503   0.000000
    13  C    2.160322   2.168331   0.000000
    14  H    3.085963   2.534603   1.096204   0.000000
    15  H    2.489612   2.507608   1.095555   1.766767   0.000000
    16  H    2.533965   3.091603   1.095819   1.766266   1.767319
    17  C    3.484355   2.720173   3.145072   2.850515   4.118535
    18  H    4.332427   3.748174   4.112911   3.804773   5.136743
    19  H    3.757052   2.542398   3.584294   3.247319   4.384592
    20  H    3.840135   3.032129   2.822950   2.203151   3.786841
                   16         17         18         19         20
    16  H    0.000000
    17  C    3.571612   0.000000
    18  H    4.362212   1.095220   0.000000
    19  H    4.254597   1.094891   1.765759   0.000000
    20  H    3.212243   1.095214   1.767055   1.765781   0.000000
 Stoichiometry    C6H14
 Framework group  C1[X(C6H14)]
 Deg. of freedom    54
 Full point group                 C1      NOp   1
 Largest Abelian subgroup         C1      NOp   1
 Largest concise Abelian subgroup C1      NOp   1
                         Standard orientation:                         
 ---------------------------------------------------------------------
 Center     Atomic      Atomic             Coordinates (Angstroms)
 Number     Number       Type             X           Y           Z
 ---------------------------------------------------------------------
      1          6           0       -2.531559   -0.223926   -0.368539
      2          1           0       -2.465624   -0.441027   -1.440606
      3          1           0       -2.721151    0.850625   -0.263311
      4          1           0       -3.408883   -0.751695    0.021333
      5          6           0       -1.262996   -0.645170    0.369354
      6          1           0       -1.373849   -0.442825    1.451735
      7          1           0       -1.138394   -1.742289    0.279970
      8          6           0       -0.000023    0.064384   -0.168961
      9          1           0       -0.000107   -0.014618   -1.283874
     10          6           0        1.262950   -0.645285    0.369255
     11          1           0        1.138340   -1.742380    0.279689
     12          1           0        1.373761   -0.443152    1.451689
     13          6           0        2.531573   -0.223909   -0.368493
     14          1           0        2.722736    0.850094   -0.260618
     15          1           0        3.408441   -0.753930    0.019351
     16          1           0        2.464588   -0.438151   -1.441075
     17          6           0        0.000050    1.550081    0.211012
     18          1           0       -0.883474    2.060898   -0.186430
     19          1           0        0.000059    1.690567    1.296853
     20          1           0        0.883581    2.060832   -0.186479
 ---------------------------------------------------------------------
 Rotational constants (GHZ):      6.2716791      1.8700381      1.6213478
 Leave Link  202 at Mon Sep 14 19:14:46 2015, MaxMem=  402653184 cpu:       0.0
 (Enter /share/apps/g09/l601.exe)
 Copying SCF densities to generalized density rwf, IOpCl= 0 IROHF=0.

 **********************************************************************

            Population analysis using the SCF density.

 **********************************************************************

 Orbital symmetries:
       Occupied  (A) (A) (A) (A) (A) (A) (A) (A) (A) (A) (A) (A)
                 (A) (A) (A) (A) (A) (A) (A)
       Virtual   (A) (A) (A) (A) (A) (A) (A) (A) (A) (A) (A) (A)
                 (A) (A) (A) (A) (A) (A) (A)
 The electronic state is 1-A.
 Alpha  occ. eigenvalues --   -1.06408  -0.97888  -0.91120  -0.84287  -0.75443
 Alpha  occ. eigenvalues --   -0.70781  -0.58111  -0.56972  -0.53838  -0.52592
 Alpha  occ. eigenvalues --   -0.49814  -0.48733  -0.47275  -0.45863  -0.45630
 Alpha  occ. eigenvalues --   -0.42574  -0.40991  -0.40679  -0.40508
 Alpha virt. eigenvalues --    0.15293   0.15706   0.16907   0.17811   0.18452
 Alpha virt. eigenvalues --    0.21201   0.21226   0.22022   0.22078   0.22335
 Alpha virt. eigenvalues --    0.22723   0.23158   0.23164   0.23674   0.24618
 Alpha virt. eigenvalues --    0.24822   0.25444   0.25735   0.26465
          Condensed to atoms (all electrons):
              1          2          3          4          5          6
     1  C    4.454438   0.000000   0.000000   0.000000   0.000000   0.000000
     2  H    0.000000   0.855364   0.000000   0.000000   0.000000   0.000000
     3  H    0.000000   0.000000   0.853699   0.000000   0.000000   0.000000
     4  H    0.000000   0.000000   0.000000   0.858407   0.000000   0.000000
     5  C    0.000000   0.000000   0.000000   0.000000   4.262912   0.000000
     6  H    0.000000   0.000000   0.000000   0.000000   0.000000   0.868885
     7  H    0.000000   0.000000   0.000000   0.000000   0.000000   0.000000
     8  C    0.000000   0.000000   0.000000   0.000000   0.000000   0.000000
     9  H    0.000000   0.000000   0.000000   0.000000   0.000000   0.000000
    10  C    0.000000   0.000000   0.000000   0.000000   0.000000   0.000000
    11  H    0.000000   0.000000   0.000000   0.000000   0.000000   0.000000
    12  H    0.000000   0.000000   0.000000   0.000000   0.000000   0.000000
    13  C    0.000000   0.000000   0.000000   0.000000   0.000000   0.000000
    14  H    0.000000   0.000000   0.000000   0.000000   0.000000   0.000000
    15  H    0.000000   0.000000   0.000000   0.000000   0.000000   0.000000
    16  H    0.000000   0.000000   0.000000   0.000000   0.000000   0.000000
    17  C    0.000000   0.000000   0.000000   0.000000   0.000000   0.000000
    18  H    0.000000   0.000000   0.000000   0.000000   0.000000   0.000000
    19  H    0.000000   0.000000   0.000000   0.000000   0.000000   0.000000
    20  H    0.000000   0.000000   0.000000   0.000000   0.000000   0.000000
              7          8          9         10         11         12
     1  C    0.000000   0.000000   0.000000   0.000000   0.000000   0.000000
     2  H    0.000000   0.000000   0.000000   0.000000   0.000000   0.000000
     3  H    0.000000   0.000000   0.000000   0.000000   0.000000   0.000000
     4  H    0.000000   0.000000   0.000000   0.000000   0.000000   0.000000
     5  C    0.000000   0.000000   0.000000   0.000000   0.000000   0.000000
     6  H    0.000000   0.000000   0.000000   0.000000   0.000000   0.000000
     7  H    0.872547   0.000000   0.000000   0.000000   0.000000   0.000000
     8  C    0.000000   4.018939   0.000000   0.000000   0.000000   0.000000
     9  H    0.000000   0.000000   0.883215   0.000000   0.000000   0.000000
    10  C    0.000000   0.000000   0.000000   4.262905   0.000000   0.000000
    11  H    0.000000   0.000000   0.000000   0.000000   0.872552   0.000000
    12  H    0.000000   0.000000   0.000000   0.000000   0.000000   0.868886
    13  C    0.000000   0.000000   0.000000   0.000000   0.000000   0.000000
    14  H    0.000000   0.000000   0.000000   0.000000   0.000000   0.000000
    15  H    0.000000   0.000000   0.000000   0.000000   0.000000   0.000000
    16  H    0.000000   0.000000   0.000000   0.000000   0.000000   0.000000
    17  C    0.000000   0.000000   0.000000   0.000000   0.000000   0.000000
    18  H    0.000000   0.000000   0.000000   0.000000   0.000000   0.000000
    19  H    0.000000   0.000000   0.000000   0.000000   0.000000   0.000000
    20  H    0.000000   0.000000   0.000000   0.000000   0.000000   0.000000
             13         14         15         16         17         18
     1  C    0.000000   0.000000   0.000000   0.000000   0.000000   0.000000
     2  H    0.000000   0.000000   0.000000   0.000000   0.000000   0.000000
     3  H    0.000000   0.000000   0.000000   0.000000   0.000000   0.000000
     4  H    0.000000   0.000000   0.000000   0.000000   0.000000   0.000000
     5  C    0.000000   0.000000   0.000000   0.000000   0.000000   0.000000
     6  H    0.000000   0.000000   0.000000   0.000000   0.000000   0.000000
     7  H    0.000000   0.000000   0.000000   0.000000   0.000000   0.000000
     8  C    0.000000   0.000000   0.000000   0.000000   0.000000   0.000000
     9  H    0.000000   0.000000   0.000000   0.000000   0.000000   0.000000
    10  C    0.000000   0.000000   0.000000   0.000000   0.000000   0.000000
    11  H    0.000000   0.000000   0.000000   0.000000   0.000000   0.000000
    12  H    0.000000   0.000000   0.000000   0.000000   0.000000   0.000000
    13  C    4.454428   0.000000   0.000000   0.000000   0.000000   0.000000
    14  H    0.000000   0.853715   0.000000   0.000000   0.000000   0.000000
    15  H    0.000000   0.000000   0.858412   0.000000   0.000000   0.000000
    16  H    0.000000   0.000000   0.000000   0.855352   0.000000   0.000000
    17  C    0.000000   0.000000   0.000000   0.000000   4.487056   0.000000
    18  H    0.000000   0.000000   0.000000   0.000000   0.000000   0.853065
    19  H    0.000000   0.000000   0.000000   0.000000   0.000000   0.000000
    20  H    0.000000   0.000000   0.000000   0.000000   0.000000   0.000000
             19         20
     1  C    0.000000   0.000000
     2  H    0.000000   0.000000
     3  H    0.000000   0.000000
     4  H    0.000000   0.000000
     5  C    0.000000   0.000000
     6  H    0.000000   0.000000
     7  H    0.000000   0.000000
     8  C    0.000000   0.000000
     9  H    0.000000   0.000000
    10  C    0.000000   0.000000
    11  H    0.000000   0.000000
    12  H    0.000000   0.000000
    13  C    0.000000   0.000000
    14  H    0.000000   0.000000
    15  H    0.000000   0.000000
    16  H    0.000000   0.000000
    17  C    0.000000   0.000000
    18  H    0.000000   0.000000
    19  H    0.852168   0.000000
    20  H    0.000000   0.853055
 Mulliken atomic charges:
              1
     1  C   -0.454438
     2  H    0.144636
     3  H    0.146301
     4  H    0.141593
     5  C   -0.262912
     6  H    0.131115
     7  H    0.127453
     8  C   -0.018939
     9  H    0.116785
    10  C   -0.262905
    11  H    0.127448
    12  H    0.131114
    13  C   -0.454428
    14  H    0.146285
    15  H    0.141588
    16  H    0.144648
    17  C   -0.487056
    18  H    0.146935
    19  H    0.147832
    20  H    0.146945
 Sum of Mulliken atomic charges =   0.00000
 Mulliken charges with hydrogens summed into heavy atoms:
              1
     1  C   -0.021909
     5  C   -0.004345
     8  C    0.097846
    10  C   -0.004342
    13  C   -0.021907
    17  C   -0.045343
 Sum of Mulliken charges with hydrogens summed into heavy atoms =   0.00000
 Charge=              0.0000 electrons
 Dipole moment (field-independent basis, Debye):
    X=              0.0000    Y=              0.0622    Z=              0.0008  Tot=              0.0622
 N-N= 1.670490475030D+02 E-N=-2.549896404524D+02  KE=-5.623176842031D+01
 Leave Link  601 at Mon Sep 14 19:14:47 2015, MaxMem=  402653184 cpu:       0.0
 (Enter /share/apps/g09/l9999.exe)
 1\1\GINC-COMPUTE-0-7\FOpt\RPM6\ZDO\C6H14\HETANJIN\14-Sep-2015\0\\#p PM
 6 opt\\using PM6 to do opt and freq calc.\\0,1\C,-2.501430674,-0.24123
 60596,-0.4307188219\H,-2.3865640242,-0.4145582282,-1.5066245524\H,-2.7
 292376246,0.8221676454,-0.2930497763\H,-3.3760734273,-0.8101544504,-0.
 0966991014\C,-1.2500003589,-0.6519429134,0.341567867\H,-1.4096611698,-
 0.4951245316,1.4254017569\H,-1.0870011174,-1.7404780962,0.2162438348\C
 ,0.0098173351,0.1160215364,-0.11826168\H,0.0560195238,0.0802813894,-1.
 2344429147\C,1.2727164629,-0.5751987921,0.4436165694\H,1.1868296812,-1
 .6712866779,0.3080335842\H,1.3344407812,-0.4118503752,1.5364607687\C,2
 .5552108608,-0.0871698339,-0.2259128229\H,2.7075846948,0.9871702108,-0
 .0702221279\H,3.4326629649,-0.6048849209,0.1769396076\H,2.5372570819,-
 0.2616597331,-1.307601016\C,-0.0524867754,1.5852060765,0.3168141206\H,
 -0.9355958871,2.0839090225,-0.0966120286\H,-0.0995870631,1.6834786781,
 1.4062680733\H,0.8291987353,2.1376100531,-0.0252013404\\Version=EM64L-
 G09RevA.01\State=1-A\HF=-0.0567225\RMSD=5.990e-09\RMSF=6.651e-06\Dipol
 e=-0.0007938,0.0244461,0.0012211\PG=C01 [X(C6H14)]\\@


 TIME IS NATURE'S WAY OF MAKING SURE EVERYTHING
 DOESN'T HAPPEN AT ONCE.
                     - WOODY ALLEN
 Job cpu time:  0 days  0 hours  0 minutes 27.4 seconds.
 File lengths (MBytes):  RWF=      5 Int=      0 D2E=      0 Chk=      3 Scr=      1
 Normal termination of Gaussian 09 at Mon Sep 14 19:14:49 2015.
