using PM6 to do opt and freq calc.                                      
FOpt      RPM6                                                        ZDO                 
Number of atoms                            I               20
Info1-9                                    I   N=           9
          33          29           0           0           0         110
           2           8         302
Charge                                     I                0
Multiplicity                               I                1
Number of electrons                        I               38
Number of alpha electrons                  I               19
Number of beta electrons                   I               19
Number of basis functions                  I               38
Number of independent functions            I               38
Number of point charges in /Mol/           I                0
Number of translation vectors              I                0
Atomic numbers                             I   N=          20
           6           1           1           1           6           1
           1           6           1           6           1           1
           6           1           1           1           6           1
           1           1
Nuclear charges                            R   N=          20
  4.00000000E+00  1.00000000E+00  1.00000000E+00  1.00000000E+00  4.00000000E+00
  1.00000000E+00  1.00000000E+00  4.00000000E+00  1.00000000E+00  4.00000000E+00
  1.00000000E+00  1.00000000E+00  4.00000000E+00  1.00000000E+00  1.00000000E+00
  1.00000000E+00  4.00000000E+00  1.00000000E+00  1.00000000E+00  1.00000000E+00
Current cartesian coordinates              R   N=          60
 -4.78395278E+00 -4.23158284E-01 -6.96437016E-01 -4.65935395E+00 -8.33420649E-01
 -2.72234999E+00 -5.14223016E+00  1.60744741E+00 -4.97586489E-01 -6.44185439E+00
 -1.42049812E+00  4.03130145E-02 -2.38671661E+00 -1.21919525E+00  6.97978842E-01
 -2.59619870E+00 -8.36817062E-01  2.74338128E+00 -2.15125267E+00 -3.29244833E+00
  5.29067521E-01 -4.27910258E-05  1.21668622E-01 -3.19290260E-01 -2.02111849E-04
 -2.76238901E-02 -2.42617066E+00  2.38662976E+00 -1.21941203E+00  6.97790290E-01
  2.15115170E+00 -3.29262193E+00  5.28535739E-01  2.59603288E+00 -8.37435467E-01
  2.74329468E+00  4.78398004E+00 -4.23127355E-01 -6.96350750E-01  5.14522567E+00
  1.60644520E+00 -4.92496382E-01  6.44101948E+00 -1.42472142E+00  3.65672178E-02
  4.65739723E+00 -8.27985043E-01 -2.72323690E+00  9.40494612E-05  2.92922935E+00
  3.98755816E-01 -1.66952310E+00  3.89453195E+00 -3.52302478E-01  1.11238860E-04
  3.19470914E+00  2.45069698E+00  1.66972689E+00  3.89440792E+00 -3.52395047E-01
Force Field                                I                0
Int Atom Types                             I   N=          20
           0           0           0           0           0           0
           0           0           0           0           0           0
           0           0           0           0           0           0
           0           0
MM charges                                 R   N=          20
  0.00000000E+00  0.00000000E+00  0.00000000E+00  0.00000000E+00  0.00000000E+00
  0.00000000E+00  0.00000000E+00  0.00000000E+00  0.00000000E+00  0.00000000E+00
  0.00000000E+00  0.00000000E+00  0.00000000E+00  0.00000000E+00  0.00000000E+00
  0.00000000E+00  0.00000000E+00  0.00000000E+00  0.00000000E+00  0.00000000E+00
Integer atomic weights                     I   N=          20
          12           1           1           1          12           1
           1          12           1          12           1           1
          12           1           1           1          12           1
           1           1
Real atomic weights                        R   N=          20
  1.20000000E+01  1.00782504E+00  1.00782504E+00  1.00782504E+00  1.20000000E+01
  1.00782504E+00  1.00782504E+00  1.20000000E+01  1.00782504E+00  1.20000000E+01
  1.00782504E+00  1.00782504E+00  1.20000000E+01  1.00782504E+00  1.00782504E+00
  1.00782504E+00  1.20000000E+01  1.00782504E+00  1.00782504E+00  1.00782504E+00
Atom fragment info                         I   N=          20
           0           0           0           0           0           0
           0           0           0           0           0           0
           0           0           0           0           0           0
           0           0
Atom residue num                           I   N=          20
           0           0           0           0           0           0
           0           0           0           0           0           0
           0           0           0           0           0           0
           0           0
Nuclear spins                              I   N=          20
           0           1           1           1           0           1
           1           0           1           0           1           1
           0           1           1           1           0           1
           1           1
Nuclear ZEff                               R   N=          20
 -3.90000000E+00 -1.00000000E+00 -1.00000000E+00 -1.00000000E+00 -3.90000000E+00
 -1.00000000E+00 -1.00000000E+00 -3.90000000E+00 -1.00000000E+00 -3.90000000E+00
 -1.00000000E+00 -1.00000000E+00 -3.90000000E+00 -1.00000000E+00 -1.00000000E+00
 -1.00000000E+00 -3.90000000E+00 -1.00000000E+00 -1.00000000E+00 -1.00000000E+00
Nuclear QMom                               R   N=          20
  0.00000000E+00  0.00000000E+00  0.00000000E+00  0.00000000E+00  0.00000000E+00
  0.00000000E+00  0.00000000E+00  0.00000000E+00  0.00000000E+00  0.00000000E+00
  0.00000000E+00  0.00000000E+00  0.00000000E+00  0.00000000E+00  0.00000000E+00
  0.00000000E+00  0.00000000E+00  0.00000000E+00  0.00000000E+00  0.00000000E+00
Nuclear GFac                               R   N=          20
  0.00000000E+00  2.79284600E+00  2.79284600E+00  2.79284600E+00  0.00000000E+00
  2.79284600E+00  2.79284600E+00  0.00000000E+00  2.79284600E+00  0.00000000E+00
  2.79284600E+00  2.79284600E+00  0.00000000E+00  2.79284600E+00  2.79284600E+00
  2.79284600E+00  0.00000000E+00  2.79284600E+00  2.79284600E+00  2.79284600E+00
MicOpt                                     I   N=          20
          -1          -1          -1          -1          -1          -1
          -1          -1          -1          -1          -1          -1
          -1          -1          -1          -1          -1          -1
          -1          -1
Number of contracted shells                I               20
Number of primitive shells                 I              120
Pure/Cartesian d shells                    I                0
Pure/Cartesian f shells                    I                0
Highest angular momentum                   I                1
Largest degree of contraction              I                6
Shell types                                I   N=          20
          -1           0           0           0          -1           0
           0          -1           0          -1           0           0
          -1           0           0           0          -1           0
           0           0
Number of primitives per shell             I   N=          20
           6           6           6           6           6           6
           6           6           6           6           6           6
           6           6           6           6           6           6
           6           6
Shell to atom map                          I   N=          20
           1           2           3           4           5           6
           7           8           9          10          11          12
          13          14          15          16          17          18
          19          20
Primitive exponents                        R   N=         120
  1.14476344E+01  3.29633588E+00  1.29653143E+00  5.92558930E-01  2.94896438E-01
  1.51447622E-01  4.39461478E+00  1.26542531E+00  4.97723458E-01  2.27476537E-01
  1.13207340E-01  5.81389949E-02  4.39461478E+00  1.26542531E+00  4.97723458E-01
  2.27476537E-01  1.13207340E-01  5.81389949E-02  4.39461478E+00  1.26542531E+00
  4.97723458E-01  2.27476537E-01  1.13207340E-01  5.81389949E-02  1.14476344E+01
  3.29633588E+00  1.29653143E+00  5.92558930E-01  2.94896438E-01  1.51447622E-01
  4.39461478E+00  1.26542531E+00  4.97723458E-01  2.27476537E-01  1.13207340E-01
  5.81389949E-02  4.39461478E+00  1.26542531E+00  4.97723458E-01  2.27476537E-01
  1.13207340E-01  5.81389949E-02  1.14476344E+01  3.29633588E+00  1.29653143E+00
  5.92558930E-01  2.94896438E-01  1.51447622E-01  4.39461478E+00  1.26542531E+00
  4.97723458E-01  2.27476537E-01  1.13207340E-01  5.81389949E-02  1.14476344E+01
  3.29633588E+00  1.29653143E+00  5.92558930E-01  2.94896438E-01  1.51447622E-01
  4.39461478E+00  1.26542531E+00  4.97723458E-01  2.27476537E-01  1.13207340E-01
  5.81389949E-02  4.39461478E+00  1.26542531E+00  4.97723458E-01  2.27476537E-01
  1.13207340E-01  5.81389949E-02  1.14476344E+01  3.29633588E+00  1.29653143E+00
  5.92558930E-01  2.94896438E-01  1.51447622E-01  4.39461478E+00  1.26542531E+00
  4.97723458E-01  2.27476537E-01  1.13207340E-01  5.81389949E-02  4.39461478E+00
  1.26542531E+00  4.97723458E-01  2.27476537E-01  1.13207340E-01  5.81389949E-02
  4.39461478E+00  1.26542531E+00  4.97723458E-01  2.27476537E-01  1.13207340E-01
  5.81389949E-02  1.14476344E+01  3.29633588E+00  1.29653143E+00  5.92558930E-01
  2.94896438E-01  1.51447622E-01  4.39461478E+00  1.26542531E+00  4.97723458E-01
  2.27476537E-01  1.13207340E-01  5.81389949E-02  4.39461478E+00  1.26542531E+00
  4.97723458E-01  2.27476537E-01  1.13207340E-01  5.81389949E-02  4.39461478E+00
  1.26542531E+00  4.97723458E-01  2.27476537E-01  1.13207340E-01  5.81389949E-02
Contraction coefficients                   R   N=         120
 -9.73739553E-03 -7.26587678E-02 -1.71615520E-01  1.28977624E-01  7.28861451E-01
  3.01331742E-01 -9.73739553E-03 -7.26587678E-02 -1.71615520E-01  1.28977624E-01
  7.28861451E-01  3.01331742E-01 -9.73739553E-03 -7.26587678E-02 -1.71615520E-01
  1.28977624E-01  7.28861451E-01  3.01331742E-01 -9.73739553E-03 -7.26587678E-02
 -1.71615520E-01  1.28977624E-01  7.28861451E-01  3.01331742E-01 -9.73739553E-03
 -7.26587678E-02 -1.71615520E-01  1.28977624E-01  7.28861451E-01  3.01331742E-01
 -9.73739553E-03 -7.26587678E-02 -1.71615520E-01  1.28977624E-01  7.28861451E-01
  3.01331742E-01 -9.73739553E-03 -7.26587678E-02 -1.71615520E-01  1.28977624E-01
  7.28861451E-01  3.01331742E-01 -9.73739553E-03 -7.26587678E-02 -1.71615520E-01
  1.28977624E-01  7.28861451E-01  3.01331742E-01 -9.73739553E-03 -7.26587678E-02
 -1.71615520E-01  1.28977624E-01  7.28861451E-01  3.01331742E-01 -9.73739553E-03
 -7.26587678E-02 -1.71615520E-01  1.28977624E-01  7.28861451E-01  3.01331742E-01
 -9.73739553E-03 -7.26587678E-02 -1.71615520E-01  1.28977624E-01  7.28861451E-01
  3.01331742E-01 -9.73739553E-03 -7.26587678E-02 -1.71615520E-01  1.28977624E-01
  7.28861451E-01  3.01331742E-01 -9.73739553E-03 -7.26587678E-02 -1.71615520E-01
  1.28977624E-01  7.28861451E-01  3.01331742E-01 -9.73739553E-03 -7.26587678E-02
 -1.71615520E-01  1.28977624E-01  7.28861451E-01  3.01331742E-01 -9.73739553E-03
 -7.26587678E-02 -1.71615520E-01  1.28977624E-01  7.28861451E-01  3.01331742E-01
 -9.73739553E-03 -7.26587678E-02 -1.71615520E-01  1.28977624E-01  7.28861451E-01
  3.01331742E-01 -9.73739553E-03 -7.26587678E-02 -1.71615520E-01  1.28977624E-01
  7.28861451E-01  3.01331742E-01 -9.73739553E-03 -7.26587678E-02 -1.71615520E-01
  1.28977624E-01  7.28861451E-01  3.01331742E-01 -9.73739553E-03 -7.26587678E-02
 -1.71615520E-01  1.28977624E-01  7.28861451E-01  3.01331742E-01 -9.73739553E-03
 -7.26587678E-02 -1.71615520E-01  1.28977624E-01  7.28861451E-01  3.01331742E-01
P(S=P) Contraction coefficients            R   N=         120
 -8.10494336E-03 -1.71547892E-02  7.36978576E-02  3.96514999E-01  4.97808488E-01
  1.17482582E-01  0.00000000E+00  0.00000000E+00  0.00000000E+00  0.00000000E+00
  0.00000000E+00  0.00000000E+00  0.00000000E+00  0.00000000E+00  0.00000000E+00
  0.00000000E+00  0.00000000E+00  0.00000000E+00  0.00000000E+00  0.00000000E+00
  0.00000000E+00  0.00000000E+00  0.00000000E+00  0.00000000E+00 -8.10494336E-03
 -1.71547892E-02  7.36978576E-02  3.96514999E-01  4.97808488E-01  1.17482582E-01
  0.00000000E+00  0.00000000E+00  0.00000000E+00  0.00000000E+00  0.00000000E+00
  0.00000000E+00  0.00000000E+00  0.00000000E+00  0.00000000E+00  0.00000000E+00
  0.00000000E+00  0.00000000E+00 -8.10494336E-03 -1.71547892E-02  7.36978576E-02
  3.96514999E-01  4.97808488E-01  1.17482582E-01  0.00000000E+00  0.00000000E+00
  0.00000000E+00  0.00000000E+00  0.00000000E+00  0.00000000E+00 -8.10494336E-03
 -1.71547892E-02  7.36978576E-02  3.96514999E-01  4.97808488E-01  1.17482582E-01
  0.00000000E+00  0.00000000E+00  0.00000000E+00  0.00000000E+00  0.00000000E+00
  0.00000000E+00  0.00000000E+00  0.00000000E+00  0.00000000E+00  0.00000000E+00
  0.00000000E+00  0.00000000E+00 -8.10494336E-03 -1.71547892E-02  7.36978576E-02
  3.96514999E-01  4.97808488E-01  1.17482582E-01  0.00000000E+00  0.00000000E+00
  0.00000000E+00  0.00000000E+00  0.00000000E+00  0.00000000E+00  0.00000000E+00
  0.00000000E+00  0.00000000E+00  0.00000000E+00  0.00000000E+00  0.00000000E+00
  0.00000000E+00  0.00000000E+00  0.00000000E+00  0.00000000E+00  0.00000000E+00
  0.00000000E+00 -8.10494336E-03 -1.71547892E-02  7.36978576E-02  3.96514999E-01
  4.97808488E-01  1.17482582E-01  0.00000000E+00  0.00000000E+00  0.00000000E+00
  0.00000000E+00  0.00000000E+00  0.00000000E+00  0.00000000E+00  0.00000000E+00
  0.00000000E+00  0.00000000E+00  0.00000000E+00  0.00000000E+00  0.00000000E+00
  0.00000000E+00  0.00000000E+00  0.00000000E+00  0.00000000E+00  0.00000000E+00
Coordinates of each shell                  R   N=          60
 -4.78395278E+00 -4.23158284E-01 -6.96437016E-01 -4.65935395E+00 -8.33420649E-01
 -2.72234999E+00 -5.14223016E+00  1.60744741E+00 -4.97586489E-01 -6.44185439E+00
 -1.42049812E+00  4.03130145E-02 -2.38671661E+00 -1.21919525E+00  6.97978842E-01
 -2.59619870E+00 -8.36817062E-01  2.74338128E+00 -2.15125267E+00 -3.29244833E+00
  5.29067521E-01 -4.27910258E-05  1.21668622E-01 -3.19290260E-01 -2.02111849E-04
 -2.76238901E-02 -2.42617066E+00  2.38662976E+00 -1.21941203E+00  6.97790290E-01
  2.15115170E+00 -3.29262193E+00  5.28535739E-01  2.59603288E+00 -8.37435467E-01
  2.74329468E+00  4.78398004E+00 -4.23127355E-01 -6.96350750E-01  5.14522567E+00
  1.60644520E+00 -4.92496382E-01  6.44101948E+00 -1.42472142E+00  3.65672178E-02
  4.65739723E+00 -8.27985043E-01 -2.72323690E+00  9.40494612E-05  2.92922935E+00
  3.98755816E-01 -1.66952310E+00  3.89453195E+00 -3.52302478E-01  1.11238860E-04
  3.19470914E+00  2.45069698E+00  1.66972689E+00  3.89440792E+00 -3.52395047E-01
Constraint Structure                       R   N=          60
 -4.87495708E+00 -3.66773122E-01 -5.97184098E-01 -4.73961440E+00 -5.03659998E-01
 -2.69312699E+00 -5.33859832E+00  1.61133851E+00 -5.75709047E-02 -6.44854235E+00
 -1.60334783E+00  5.38992992E-02 -2.40456721E+00 -1.22994049E+00  6.32376845E-01
 -2.55522829E+00 -9.75042632E-01  2.71867339E+00 -2.24369247E+00 -3.29712121E+00
  2.54769189E-01 -5.85396448E-03  1.17594480E-01 -3.63242311E-01 -2.72483964E-02
  2.47015056E-03 -2.46863175E+00  2.37923989E+00 -1.29074825E+00  5.76674761E-01
  2.20721587E+00 -3.33174022E+00  7.93573487E-02  2.51102095E+00 -1.15455700E+00
  2.67533157E+00  4.86679235E+00 -3.70520005E-01 -5.74557617E-01  5.35835593E+00
  1.54621628E+00  1.36637951E-01  6.41898866E+00 -1.68317343E+00 -2.95690022E-02
  4.73439879E+00 -3.23015612E-01 -2.67436031E+00  3.59567446E-02  2.93087727E+00
  3.80858953E-01 -1.66560499E+00  3.92742925E+00 -3.45087209E-01  1.04584025E-01
  3.14201926E+00  2.47424751E+00  1.70430061E+00  3.89924525E+00 -4.54129287E-01
Num ILSW                                   I              100
ILSW                                       I   N=         100
           0           0           0           0           2           0
           0           0           0           0           0          -1
           0           0           0           0           0           0
           0           0           0           0           1           0
           1           0           0           0           0           0
           0           0      100000           0          -1           0
           0           0           0           0           0           0
           0           0           0          40           0           0
           0           0           1           0           0           0
           0           0           4          40           0           0
           0           0           0           0           0           0
           0           0           0           0           0           0
           0           0           0           0           0           0
           0           0           0           0           0           0
           0           0           0           0           0           0
           0           0           0           0           0           0
           0           0           0           0
Num RLSW                                   I               40
RLSW                                       R   N=          40
  1.00000000E+00  1.00000000E+00  1.00000000E+00  1.00000000E+00  1.00000000E+00
  0.00000000E+00  0.00000000E+00  1.00000000E+00  0.00000000E+00  0.00000000E+00
  0.00000000E+00  0.00000000E+00  1.00000000E+00  0.00000000E+00  0.00000000E+00
  0.00000000E+00  0.00000000E+00  1.00000000E+00  0.00000000E+00  0.00000000E+00
  0.00000000E+00  0.00000000E+00  1.00000000E+00  0.00000000E+00  0.00000000E+00
  0.00000000E+00  0.00000000E+00  1.00000000E+00  0.00000000E+00  0.00000000E+00
  0.00000000E+00  0.00000000E+00  0.00000000E+00  0.00000000E+00  0.00000000E+00
  0.00000000E+00  0.00000000E+00  0.00000000E+00  1.00000000E+00  1.00000000E+00
MxBond                                     I                4
NBond                                      I   N=          20
           4           1           1           1           4           1
           1           4           1           4           1           1
           4           1           1           1           4           1
           1           1
IBond                                      I   N=          80
           2           3           4           5           1           0
           0           0           1           0           0           0
           1           0           0           0           1           6
           7           8           5           0           0           0
           5           0           0           0           5           9
          10          17           8           0           0           0
           8          11          12          13          10           0
           0           0          10           0           0           0
          10          14          15          16          13           0
           0           0          13           0           0           0
          13           0           0           0           8          18
          19          20          17           0           0           0
          17           0           0           0          17           0
           0           0
RBond                                      R   N=          80
  1.00000000E+00  1.00000000E+00  1.00000000E+00  1.00000000E+00  1.00000000E+00
  0.00000000E+00  0.00000000E+00  0.00000000E+00  1.00000000E+00  0.00000000E+00
  0.00000000E+00  0.00000000E+00  1.00000000E+00  0.00000000E+00  0.00000000E+00
  0.00000000E+00  1.00000000E+00  1.00000000E+00  1.00000000E+00  1.00000000E+00
  1.00000000E+00  0.00000000E+00  0.00000000E+00  0.00000000E+00  1.00000000E+00
  0.00000000E+00  0.00000000E+00  0.00000000E+00  1.00000000E+00  1.00000000E+00
  1.00000000E+00  1.00000000E+00  1.00000000E+00  0.00000000E+00  0.00000000E+00
  0.00000000E+00  1.00000000E+00  1.00000000E+00  1.00000000E+00  1.00000000E+00
  1.00000000E+00  0.00000000E+00  0.00000000E+00  0.00000000E+00  1.00000000E+00
  0.00000000E+00  0.00000000E+00  0.00000000E+00  1.00000000E+00  1.00000000E+00
  1.00000000E+00  1.00000000E+00  1.00000000E+00  0.00000000E+00  0.00000000E+00
  0.00000000E+00  1.00000000E+00  0.00000000E+00  0.00000000E+00  0.00000000E+00
  1.00000000E+00  0.00000000E+00  0.00000000E+00  0.00000000E+00  1.00000000E+00
  1.00000000E+00  1.00000000E+00  1.00000000E+00  1.00000000E+00  0.00000000E+00
  0.00000000E+00  0.00000000E+00  1.00000000E+00  0.00000000E+00  0.00000000E+00
  0.00000000E+00  1.00000000E+00  0.00000000E+00  0.00000000E+00  0.00000000E+00
Virial Ratio                               R      9.989912724274924E-01
SCF Energy                                 R     -5.672253525642645E-02
Total Energy                               R     -5.672253525642645E-02
RMS Force                                  R      6.650609841827828E-06
RMS Density                                R      5.989511083408468E-09
External E-field                           R   N=          35
  0.00000000E+00  0.00000000E+00  0.00000000E+00  0.00000000E+00  0.00000000E+00
  0.00000000E+00  0.00000000E+00  0.00000000E+00  0.00000000E+00  0.00000000E+00
  0.00000000E+00  0.00000000E+00  0.00000000E+00  0.00000000E+00  0.00000000E+00
  0.00000000E+00  0.00000000E+00  0.00000000E+00  0.00000000E+00  0.00000000E+00
  0.00000000E+00  0.00000000E+00  0.00000000E+00  0.00000000E+00  0.00000000E+00
  0.00000000E+00  0.00000000E+00  0.00000000E+00  0.00000000E+00  0.00000000E+00
  0.00000000E+00  0.00000000E+00  0.00000000E+00  0.00000000E+00  0.00000000E+00
IOpCl                                      I                0
IROHF                                      I                0
Alpha Orbital Energies                     R   N=          38
 -1.06407835E+00 -9.78883556E-01 -9.11202943E-01 -8.42871090E-01 -7.54427851E-01
 -7.07811021E-01 -5.81109653E-01 -5.69718203E-01 -5.38375410E-01 -5.25921685E-01
 -4.98141979E-01 -4.87330904E-01 -4.72747135E-01 -4.58625470E-01 -4.56300124E-01
 -4.25739539E-01 -4.09911332E-01 -4.06786647E-01 -4.05082708E-01  1.52934292E-01
  1.57063747E-01  1.69065995E-01  1.78107300E-01  1.84517524E-01  2.12006660E-01
  2.12263284E-01  2.20220215E-01  2.20779475E-01  2.23346323E-01  2.27226360E-01
  2.31580070E-01  2.31640974E-01  2.36743271E-01  2.46181228E-01  2.48216927E-01
  2.54438321E-01  2.57354583E-01  2.64649609E-01
Alpha MO coefficients                      R   N=        1444
  2.38172933E-01  7.56895944E-02 -7.65138752E-03  2.87961419E-02  1.02838539E-01
  1.07842422E-01  8.94110342E-02  3.71649648E-01  5.53677972E-02  5.30910907E-02
 -4.16714512E-02  1.56739839E-01  1.54504718E-01  4.71659373E-01 -1.98198231E-05
 -8.33839146E-03  4.85283253E-02  1.95032529E-01  3.71589561E-01 -5.53784276E-02
  5.30901296E-02 -4.16496607E-02  1.54483418E-01  1.56716497E-01  2.38106706E-01
 -7.56753915E-02 -7.66012310E-03  2.87836934E-02  1.07772320E-01  8.93838226E-02
  1.02845272E-01  3.13429765E-01 -1.51895930E-05 -1.02398005E-01 -1.65658567E-02
  1.31221586E-01  1.35285314E-01  1.31207203E-01 -4.32333241E-01 -5.66196871E-02
  1.90782655E-02 -3.60904294E-02 -1.84655090E-01 -1.87238586E-01 -1.87918521E-01
 -3.55841992E-01  1.10327988E-01 -2.84878756E-02  4.56229973E-02 -1.46773481E-01
 -1.40008898E-01  3.49712289E-05  1.90257372E-01 -1.45236370E-05 -8.65546412E-07
  1.12438471E-05  3.55918649E-01  1.10320616E-01  2.84946860E-02 -4.56184206E-02
  1.40048569E-01  1.46804149E-01  4.32383371E-01 -5.66322371E-02 -1.90915089E-02
  3.60884536E-02  1.87260840E-01  1.87938471E-01  1.84674989E-01  7.87995031E-06
  5.87021738E-02 -1.34278716E-05  5.60622838E-07 -3.19424568E-02  4.28492148E-06
  3.19385086E-02 -3.18997244E-01  7.07558358E-03  3.72167180E-02 -1.28954321E-02
 -1.42548846E-01 -1.18201881E-01 -1.61653923E-01 -1.56644076E-01  1.28304795E-01
  6.24785371E-02  2.27418407E-02 -5.65586556E-02 -9.97680205E-02  2.17692063E-01
  1.54093953E-05  1.98533641E-01  1.80424168E-02  7.51930089E-02 -1.56615551E-01
 -1.28290053E-01  6.24725048E-02  2.27338458E-02 -9.97546045E-02 -5.65540533E-02
 -3.18970577E-01 -7.08194668E-03  3.71990819E-02 -1.28814620E-02 -1.18266902E-01
 -1.61661849E-01 -1.42469358E-01  5.37638895E-01 -4.73506796E-07 -1.05431823E-02
 -9.49828813E-03  2.40615530E-01  2.39771978E-01  2.40618708E-01  3.21298997E-01
 -9.81194921E-02  4.37697562E-02 -4.07909285E-02  1.59214090E-01  1.84096759E-01
  1.70012898E-01 -2.24814682E-01 -2.02644179E-01  5.84456781E-02 -4.06342299E-02
 -1.03380491E-01 -1.47660955E-01 -2.47757153E-01  8.62315365E-06  2.24623092E-01
 -5.17888445E-02 -8.27243273E-02 -2.24799021E-01  2.02652569E-01  5.84436143E-02
 -4.06306471E-02 -1.47649519E-01 -1.03384054E-01  3.21313440E-01  9.81174464E-02
  4.37563541E-02 -4.07716150E-02  1.84088128E-01  1.69997218E-01  1.59233771E-01
  3.21325600E-01 -4.62523103E-06  1.24785204E-01 -2.73013182E-03  1.86280900E-01
  1.51376746E-01  1.86263515E-01  2.80487599E-01 -1.90578967E-01  6.63262736E-02
 -1.22905274E-01  1.84453934E-01  1.77754225E-01  1.74013517E-01 -3.81251132E-01
 -6.20464733E-02  4.96651613E-02 -9.10234246E-02 -2.14220385E-01 -1.95661731E-01
 -1.46824537E-05  2.20139979E-01 -1.69669196E-05 -9.71714353E-06 -1.08853510E-05
  3.81273872E-01 -6.20442604E-02 -4.97107633E-02  9.10076027E-02  1.95695547E-01
  2.14223392E-01 -2.80489294E-01 -1.90590384E-01 -6.63573985E-02  1.22886775E-01
 -1.77746664E-01 -1.74021060E-01 -1.84464699E-01  2.29066136E-06  4.55747230E-02
  1.29366560E-05 -8.76880696E-06 -1.35040355E-02 -4.47130413E-06  1.35249690E-02
  6.11796867E-02 -1.85826104E-02  6.19298614E-02 -1.33721447E-01  1.04006346E-01
  5.44389039E-02 -8.66741901E-03 -1.95009961E-01  1.13244089E-01  1.23317788E-01
 -2.23496637E-01 -2.20610672E-01 -1.49981402E-01  4.19914867E-01 -6.16444257E-06
  6.65733364E-03 -2.64750661E-01  3.54526861E-01 -1.94982067E-01 -1.13246000E-01
  1.23334095E-01 -2.23467141E-01 -1.49956372E-01 -2.20593991E-01  6.11617645E-02
  1.85804178E-02  6.19376039E-02 -1.33729081E-01  5.42308696E-02 -8.61571339E-03
  1.04153362E-01 -1.80753753E-01 -1.97633445E-05 -2.17626139E-01 -1.69502475E-01
 -1.05747666E-01 -2.07528751E-01 -1.05761071E-01 -2.73248564E-02  7.90773123E-02
 -2.09038253E-01 -1.21421202E-01  9.99466803E-02 -1.59347775E-01 -1.75493537E-02
  2.36183912E-02 -3.63452328E-02 -3.10244467E-01 -2.12792246E-01 -1.67392895E-01
  2.37918166E-01 -1.12327931E-01 -4.37571193E-05 -1.51764075E-01 -2.96657962E-01
  1.60456226E-01  2.35921835E-02  3.63428567E-02 -3.10274334E-01 -2.12805554E-01
  2.37945616E-01 -1.67387991E-01 -2.73084651E-02 -7.89676865E-02 -2.09097331E-01
 -1.21465422E-01 -1.59601175E-01 -1.70082359E-02  9.97260102E-02  8.77987091E-02
  6.20917054E-06  3.28474434E-01 -1.36233953E-01  1.69433458E-01 -2.48533133E-02
  1.69435841E-01  1.90775715E-02 -1.62837224E-01 -2.86270579E-01  5.39277207E-02
  5.70025894E-03 -1.68411618E-01  2.04239886E-01  9.81186455E-03 -1.15369590E-01
 -2.99012684E-01  9.96879457E-02  3.94438256E-02  1.85592805E-01  1.50868476E-05
  3.31695509E-01 -1.84110605E-05 -2.70861795E-05  1.58424237E-05 -9.83076273E-03
 -1.15371190E-01  2.98973076E-01 -9.97203032E-02 -1.85562210E-01 -3.95096616E-02
 -1.90555294E-02 -1.62808129E-01  2.86158309E-01 -5.39246342E-02  1.67974600E-01
 -2.04459932E-01 -5.03714303E-03  4.30562581E-05  3.72625515E-01 -3.11389161E-06
  1.79039611E-05 -2.12233347E-01  3.62109766E-05  2.12238027E-01 -3.72918319E-05
 -2.07308308E-01  1.81978430E-01  3.30281303E-01 -2.57497161E-01  1.71686299E-01
  1.37104372E-01 -2.73637979E-02 -8.27834771E-02  1.20640327E-01  3.19982981E-01
  2.24248923E-01 -1.18215094E-01 -1.89736079E-05  1.43129107E-01  1.50198898E-04
 -2.04238281E-04  1.22619765E-04  2.74436853E-02 -8.23922263E-02 -1.20546200E-01
 -3.19907896E-01  1.18181224E-01 -2.24115008E-01 -6.99591281E-07 -2.07385546E-01
 -1.81998267E-01 -3.29913014E-01 -1.72398740E-01 -1.36313734E-01  2.57150731E-01
 -1.27738506E-05 -3.72553357E-02 -2.04192558E-05 -2.59403700E-04  2.78802172E-02
 -1.82873066E-04 -2.77764187E-02  1.77197301E-02 -1.69147878E-01 -1.11035404E-02
 -3.01085935E-01  2.06065089E-01 -3.34354747E-03  3.27891768E-02 -6.30002466E-02
  3.04633496E-01 -7.72558070E-02 -3.21311243E-02 -7.93701932E-02  5.26208258E-02
  3.56657694E-02  8.44441582E-05 -2.10245198E-01  2.82914949E-01 -1.64440436E-01
 -6.29566805E-02 -3.04715792E-01 -7.74162369E-02 -3.25680593E-02  5.27822046E-02
 -7.96611620E-02  1.77158568E-02  1.68897633E-01 -1.12935267E-02 -3.01466955E-01
 -3.84045022E-03  3.29776542E-02  2.06292399E-01  2.04960244E-02 -8.99351130E-05
  1.96271446E-03  4.27306304E-01 -1.00216512E-01  3.02847215E-01 -1.00343104E-01
 -1.48409932E-02 -3.70632537E-01 -3.06380658E-01  1.32009364E-01 -7.29002880E-02
 -1.71067408E-01  3.53486809E-01 -7.41582022E-02  4.62396259E-02 -1.08446015E-01
  1.12403283E-01  2.37388096E-02  4.11689989E-02  1.31003416E-01 -4.16242175E-05
  1.72523985E-01 -2.78297854E-02  6.93032912E-02 -7.42197457E-02 -4.62449731E-02
 -1.08596366E-01  1.12533315E-01  4.12322497E-02  2.37894734E-02 -1.48776882E-02
  3.70905947E-01 -3.06608710E-01  1.32091474E-01 -1.70469257E-01  3.53901979E-01
 -7.38359746E-02  4.25432649E-02  2.79203009E-04 -2.14127697E-01 -8.33508870E-02
 -4.37048256E-02 -5.49118955E-02 -4.33363245E-02  2.89095248E-02  2.69810022E-01
 -2.96677695E-01 -5.70610305E-03  7.30906882E-02 -2.39997142E-01 -4.11992528E-02
  2.72075222E-02 -2.41918923E-01  1.12263043E-01 -1.50918463E-01 -5.76130751E-02
 -8.65714657E-02  4.13493961E-03 -4.41960178E-06  2.14095821E-01  4.68264027E-02
 -4.11610799E-02  2.71861002E-02  2.41917793E-01  1.12126237E-01 -1.50909577E-01
 -8.64659436E-02 -5.76703640E-02  2.88789913E-02 -2.69666441E-01 -2.96844862E-01
 -5.71853189E-03 -2.40266835E-01 -4.05281454E-02  7.27142046E-02  3.32966765E-02
  1.73881524E-04 -2.83608158E-01  3.13650386E-01 -1.73996306E-01  2.15211045E-01