 Entering Gaussian System, Link 0=/share/apps/g09/g09
 Input=C6H14_5_01_1_opt_B3L.gjf
 Output=C6H14_5_01_1_opt_B3L.log
 Initial command:
 /share/apps/g09/l1.exe /state/partition1/Gau-12826.inp -scrdir=/state/partition1/
 Entering Link 1 = /share/apps/g09/l1.exe PID=     12827.
  
 Copyright (c) 1988,1990,1992,1993,1995,1998,2003,2009, Gaussian, Inc.
                  All Rights Reserved.
  
 This is part of the Gaussian(R) 09 program.  It is based on
 the Gaussian(R) 03 system (copyright 2003, Gaussian, Inc.),
 the Gaussian(R) 98 system (copyright 1998, Gaussian, Inc.),
 the Gaussian(R) 94 system (copyright 1995, Gaussian, Inc.),
 the Gaussian 92(TM) system (copyright 1992, Gaussian, Inc.),
 the Gaussian 90(TM) system (copyright 1990, Gaussian, Inc.),
 the Gaussian 88(TM) system (copyright 1988, Gaussian, Inc.),
 the Gaussian 86(TM) system (copyright 1986, Carnegie Mellon
 University), and the Gaussian 82(TM) system (copyright 1983,
 Carnegie Mellon University). Gaussian is a federally registered
 trademark of Gaussian, Inc.
  
 This software contains proprietary and confidential information,
 including trade secrets, belonging to Gaussian, Inc.
  
 This software is provided under written license and may be
 used, copied, transmitted, or stored only in accord with that
 written license.
  
 The following legend is applicable only to US Government
 contracts under FAR:
  
                    RESTRICTED RIGHTS LEGEND
  
 Use, reproduction and disclosure by the US Government is
 subject to restrictions as set forth in subparagraphs (a)
 and (c) of the Commercial Computer Software - Restricted
 Rights clause in FAR 52.227-19.
  
 Gaussian, Inc.
 340 Quinnipiac St., Bldg. 40, Wallingford CT 06492
  
  
 ---------------------------------------------------------------
 Warning -- This program may not be used in any manner that
 competes with the business of Gaussian, Inc. or will provide
 assistance to any competitor of Gaussian, Inc.  The licensee
 of this program is prohibited from giving any competitor of
 Gaussian, Inc. access to this program.  By using this program,
 the user acknowledges that Gaussian, Inc. is engaged in the
 business of creating and licensing software in the field of
 computational chemistry and represents and warrants to the
 licensee that it is not a competitor of Gaussian, Inc. and that
 it will not use this program in any manner prohibited above.
 ---------------------------------------------------------------
  

 Cite this work as:
 Gaussian 09, Revision A.01,
 M. J. Frisch, G. W. Trucks, H. B. Schlegel, G. E. Scuseria, 
 M. A. Robb, J. R. Cheeseman, G. Scalmani, V. Barone, B. Mennucci, 
 G. A. Petersson, H. Nakatsuji, M. Caricato, X. Li, H. P. Hratchian, 
 A. F. Izmaylov, J. Bloino, G. Zheng, J. L. Sonnenberg, M. Hada, 
 M. Ehara, K. Toyota, R. Fukuda, J. Hasegawa, M. Ishida, T. Nakajima, 
 Y. Honda, O. Kitao, H. Nakai, T. Vreven, J. A. Montgomery, Jr., 
 J. E. Peralta, F. Ogliaro, M. Bearpark, J. J. Heyd, E. Brothers, 
 K. N. Kudin, V. N. Staroverov, R. Kobayashi, J. Normand, 
 K. Raghavachari, A. Rendell, J. C. Burant, S. S. Iyengar, J. Tomasi, 
 M. Cossi, N. Rega, J. M. Millam, M. Klene, J. E. Knox, J. B. Cross, 
 V. Bakken, C. Adamo, J. Jaramillo, R. Gomperts, R. E. Stratmann, 
 O. Yazyev, A. J. Austin, R. Cammi, C. Pomelli, J. W. Ochterski, 
 R. L. Martin, K. Morokuma, V. G. Zakrzewski, G. A. Voth, 
 P. Salvador, J. J. Dannenberg, S. Dapprich, A. D. Daniels, 
 O. Farkas, J. B. Foresman, J. V. Ortiz, J. Cioslowski, 
 and D. J. Fox, Gaussian, Inc., Wallingford CT, 2009.
 
 ******************************************
 Gaussian 09:  EM64L-G09RevA.01  8-May-2009
                18-Sep-2015 
 ******************************************
 %mem=3GB
 %nprocshared=2
 Will use up to    2 processors via shared memory.
 -----------------------------------------
 #p B3LYP/6-31G(d) opt=tight int=ultrafine
 -----------------------------------------
 1/7=10,14=-1,18=20,19=15,26=3,38=1/1,3;
 2/9=110,12=2,17=6,18=5,40=1/2;
 3/5=1,6=6,7=1,11=2,16=1,25=1,30=1,71=1,74=-5,75=-5/1,2,3;
 4//1;
 5/5=2,38=5/2;
 6/7=2,8=2,9=2,10=2,28=1/1;
 7//1,2,3,16;
 1/7=10,14=-1,18=20,19=15/3(2);
 2/9=110/2;
 99//99;
 2/9=110/2;
 3/5=1,6=6,7=1,11=2,16=1,25=1,30=1,71=1,74=-5,75=-5/1,2,3;
 4/5=5,16=3/1;
 5/5=2,38=5/2;
 7//1,2,3,16;
 1/7=10,14=-1,18=20,19=15/3(-5);
 2/9=110/2;
 6/7=2,8=2,9=2,10=2,19=2,28=1/1;
 99/9=1/99;
 Leave Link    1 at Fri Sep 18 13:24:31 2015, MaxMem=  402653184 cpu:       0.1
 (Enter /share/apps/g09/l101.exe)
 ---------------------------------------------
 using B3LYP/6-31G(d) to do opt and freq calc.
 ---------------------------------------------
 Symbolic Z-matrix:
 Charge =  0 Multiplicity = 1
 C                     1.6424    0.95771  -0.00074 
 H                     1.64411   1.60418   0.88179 
 H                     1.64416   1.60273  -0.88434 
 H                     2.58667   0.40439  -0.00026 
 C                     0.43177  -0.00156   0. 
 C                    -0.86296   0.85615  -0.00047 
 H                    -0.85093   1.52439  -0.88333 
 H                    -0.85094   1.52532   0.88169 
 C                    -2.15749   0.04805  -0.00004 
 H                    -2.23244  -0.5955    0.88388 
 H                    -3.03145   0.70894  -0.00029 
 H                    -2.23254  -0.59629  -0.88337 
 C                     0.49464  -0.88741  -1.25808 
 H                    -0.3256   -1.61207  -1.27754 
 H                     0.42666  -0.28973  -2.172 
 H                     1.43076  -1.45229  -1.30176 
 C                     0.49482  -0.88569   1.25928 
 H                     1.43071  -1.45092   1.30332 
 H                     0.42751  -0.28671   2.1724 
 H                    -0.32574  -1.60996   1.28012 
 
 NAtoms=     20 NQM=     20 NQMF=      0 NMic=      0 NMicF=      0 NTot=     20.
                    Isotopes and Nuclear Properties:
 (Nuclear quadrupole moments (NQMom) in fm**2, nuclear magnetic moments (NMagM)
  in nuclear magnetons)

  Atom         1           2           3           4           5           6           7           8           9          10
 IAtWgt=          12           1           1           1          12          12           1           1          12           1
 AtmWgt=  12.0000000   1.0078250   1.0078250   1.0078250  12.0000000  12.0000000   1.0078250   1.0078250  12.0000000   1.0078250
 NucSpn=           0           1           1           1           0           0           1           1           0           1
 AtZEff=   0.0000000   0.0000000   0.0000000   0.0000000   0.0000000   0.0000000   0.0000000   0.0000000   0.0000000   0.0000000
 NQMom=    0.0000000   0.0000000   0.0000000   0.0000000   0.0000000   0.0000000   0.0000000   0.0000000   0.0000000   0.0000000
 NMagM=    0.0000000   2.7928460   2.7928460   2.7928460   0.0000000   0.0000000   2.7928460   2.7928460   0.0000000   2.7928460

  Atom        11          12          13          14          15          16          17          18          19          20
 IAtWgt=           1           1          12           1           1           1          12           1           1           1
 AtmWgt=   1.0078250   1.0078250  12.0000000   1.0078250   1.0078250   1.0078250  12.0000000   1.0078250   1.0078250   1.0078250
 NucSpn=           1           1           0           1           1           1           0           1           1           1
 AtZEff=   0.0000000   0.0000000   0.0000000   0.0000000   0.0000000   0.0000000   0.0000000   0.0000000   0.0000000   0.0000000
 NQMom=    0.0000000   0.0000000   0.0000000   0.0000000   0.0000000   0.0000000   0.0000000   0.0000000   0.0000000   0.0000000
 NMagM=    2.7928460   2.7928460   0.0000000   2.7928460   2.7928460   2.7928460   0.0000000   2.7928460   2.7928460   2.7928460
 Leave Link  101 at Fri Sep 18 13:24:31 2015, MaxMem=  402653184 cpu:       0.2
 (Enter /share/apps/g09/l103.exe)

 GradGradGradGradGradGradGradGradGradGradGradGradGradGradGradGradGradGrad
 Berny optimization.
 Initialization pass.
                           ----------------------------
                           !    Initial Parameters    !
                           ! (Angstroms and Degrees)  !
 --------------------------                            --------------------------
 ! Name  Definition              Value          Derivative Info.                !
 --------------------------------------------------------------------------------
 ! R1    R(1,2)                  1.094          estimate D2E/DX2                !
 ! R2    R(1,3)                  1.094          estimate D2E/DX2                !
 ! R3    R(1,4)                  1.0944         estimate D2E/DX2                !
 ! R4    R(1,5)                  1.5446         estimate D2E/DX2                !
 ! R5    R(5,6)                  1.553          estimate D2E/DX2                !
 ! R6    R(5,13)                 1.54           estimate D2E/DX2                !
 ! R7    R(5,17)                 1.54           estimate D2E/DX2                !
 ! R8    R(6,7)                  1.1073         estimate D2E/DX2                !
 ! R9    R(6,8)                  1.1073         estimate D2E/DX2                !
 ! R10   R(6,9)                  1.5261         estimate D2E/DX2                !
 ! R11   R(9,10)                 1.0959         estimate D2E/DX2                !
 ! R12   R(9,11)                 1.0957         estimate D2E/DX2                !
 ! R13   R(9,12)                 1.0959         estimate D2E/DX2                !
 ! R14   R(13,14)                1.0947         estimate D2E/DX2                !
 ! R15   R(13,15)                1.0941         estimate D2E/DX2                !
 ! R16   R(13,16)                1.0942         estimate D2E/DX2                !
 ! R17   R(17,18)                1.0942         estimate D2E/DX2                !
 ! R18   R(17,19)                1.0941         estimate D2E/DX2                !
 ! R19   R(17,20)                1.0947         estimate D2E/DX2                !
 ! A1    A(2,1,3)              107.6476         estimate D2E/DX2                !
 ! A2    A(2,1,4)              107.2809         estimate D2E/DX2                !
 ! A3    A(2,1,5)              111.5816         estimate D2E/DX2                !
 ! A4    A(3,1,4)              107.2812         estimate D2E/DX2                !
 ! A5    A(3,1,5)              111.5811         estimate D2E/DX2                !
 ! A6    A(4,1,5)              111.2383         estimate D2E/DX2                !
 ! A7    A(1,5,6)              108.085          estimate D2E/DX2                !
 ! A8    A(1,5,13)             108.957          estimate D2E/DX2                !
 ! A9    A(1,5,17)             108.9572         estimate D2E/DX2                !
 ! A10   A(6,5,13)             110.578          estimate D2E/DX2                !
 ! A11   A(6,5,17)             110.5763         estimate D2E/DX2                !
 ! A12   A(13,5,17)            109.6408         estimate D2E/DX2                !
 ! A13   A(5,6,7)              108.9337         estimate D2E/DX2                !
 ! A14   A(5,6,8)              108.9328         estimate D2E/DX2                !
 ! A15   A(5,6,9)              114.5031         estimate D2E/DX2                !
 ! A16   A(7,6,8)              105.6862         estimate D2E/DX2                !
 ! A17   A(7,6,9)              109.2081         estimate D2E/DX2                !
 ! A18   A(8,6,9)              109.2077         estimate D2E/DX2                !
 ! A19   A(6,9,10)             111.6655         estimate D2E/DX2                !
 ! A20   A(6,9,11)             110.9292         estimate D2E/DX2                !
 ! A21   A(6,9,12)             111.6661         estimate D2E/DX2                !
 ! A22   A(10,9,11)            107.4468         estimate D2E/DX2                !
 ! A23   A(10,9,12)            107.4665         estimate D2E/DX2                !
 ! A24   A(11,9,12)            107.4466         estimate D2E/DX2                !
 ! A25   A(5,13,14)            111.3915         estimate D2E/DX2                !
 ! A26   A(5,13,15)            111.4464         estimate D2E/DX2                !
 ! A27   A(5,13,16)            111.377          estimate D2E/DX2                !
 ! A28   A(14,13,15)           107.4709         estimate D2E/DX2                !
 ! A29   A(14,13,16)           107.3726         estimate D2E/DX2                !
 ! A30   A(15,13,16)           107.5668         estimate D2E/DX2                !
 ! A31   A(5,17,18)            111.3771         estimate D2E/DX2                !
 ! A32   A(5,17,19)            111.4466         estimate D2E/DX2                !
 ! A33   A(5,17,20)            111.3914         estimate D2E/DX2                !
 ! A34   A(18,17,19)           107.567          estimate D2E/DX2                !
 ! A35   A(18,17,20)           107.373          estimate D2E/DX2                !
 ! A36   A(19,17,20)           107.4701         estimate D2E/DX2                !
 ! D1    D(2,1,5,6)             60.2232         estimate D2E/DX2                !
 ! D2    D(2,1,5,13)          -179.57           estimate D2E/DX2                !
 ! D3    D(2,1,5,17)           -59.9817         estimate D2E/DX2                !
 ! D4    D(3,1,5,6)            -60.2447         estimate D2E/DX2                !
 ! D5    D(3,1,5,13)            59.9621         estimate D2E/DX2                !
 ! D6    D(3,1,5,17)           179.5504         estimate D2E/DX2                !
 ! D7    D(4,1,5,6)            179.9893         estimate D2E/DX2                !
 ! D8    D(4,1,5,13)           -59.8039         estimate D2E/DX2                !
 ! D9    D(4,1,5,17)            59.7844         estimate D2E/DX2                !
 ! D10   D(1,5,6,7)             57.4027         estimate D2E/DX2                !
 ! D11   D(1,5,6,8)            -57.4223         estimate D2E/DX2                !
 ! D12   D(1,5,6,9)            179.9908         estimate D2E/DX2                !
 ! D13   D(13,5,6,7)           -61.7826         estimate D2E/DX2                !
 ! D14   D(13,5,6,8)          -176.6075         estimate D2E/DX2                !
 ! D15   D(13,5,6,9)            60.8056         estimate D2E/DX2                !
 ! D16   D(17,5,6,7)           176.5872         estimate D2E/DX2                !
 ! D17   D(17,5,6,8)            61.7622         estimate D2E/DX2                !
 ! D18   D(17,5,6,9)           -60.8247         estimate D2E/DX2                !
 ! D19   D(1,5,13,14)          177.7203         estimate D2E/DX2                !
 ! D20   D(1,5,13,15)          -62.2598         estimate D2E/DX2                !
 ! D21   D(1,5,13,16)           57.8723         estimate D2E/DX2                !
 ! D22   D(6,5,13,14)          -63.6232         estimate D2E/DX2                !
 ! D23   D(6,5,13,15)           56.3967         estimate D2E/DX2                !
 ! D24   D(6,5,13,16)          176.5288         estimate D2E/DX2                !
 ! D25   D(17,5,13,14)          58.5573         estimate D2E/DX2                !
 ! D26   D(17,5,13,15)         178.5772         estimate D2E/DX2                !
 ! D27   D(17,5,13,16)         -61.2908         estimate D2E/DX2                !
 ! D28   D(1,5,17,18)          -57.903          estimate D2E/DX2                !
 ! D29   D(1,5,17,19)           62.2295         estimate D2E/DX2                !
 ! D30   D(1,5,17,20)         -177.7515         estimate D2E/DX2                !
 ! D31   D(6,5,17,18)         -176.5586         estimate D2E/DX2                !
 ! D32   D(6,5,17,19)          -56.4261         estimate D2E/DX2                !
 ! D33   D(6,5,17,20)           63.5929         estimate D2E/DX2                !
 ! D34   D(13,5,17,18)          61.2599         estimate D2E/DX2                !
 ! D35   D(13,5,17,19)        -178.6076         estimate D2E/DX2                !
 ! D36   D(13,5,17,20)         -58.5886         estimate D2E/DX2                !
 ! D37   D(5,6,9,10)            60.1706         estimate D2E/DX2                !
 ! D38   D(5,6,9,11)           179.994          estimate D2E/DX2                !
 ! D39   D(5,6,9,12)           -60.1826         estimate D2E/DX2                !
 ! D40   D(7,6,9,10)          -177.3901         estimate D2E/DX2                !
 ! D41   D(7,6,9,11)           -57.5667         estimate D2E/DX2                !
 ! D42   D(7,6,9,12)            62.2567         estimate D2E/DX2                !
 ! D43   D(8,6,9,10)           -62.2672         estimate D2E/DX2                !
 ! D44   D(8,6,9,11)            57.5562         estimate D2E/DX2                !
 ! D45   D(8,6,9,12)           177.3796         estimate D2E/DX2                !
 --------------------------------------------------------------------------------
 Trust Radius=3.00D-01 FncErr=1.00D-07 GrdErr=1.00D-06
 Number of steps in this run= 110 maximum allowed number of steps= 120.
 GradGradGradGradGradGradGradGradGradGradGradGradGradGradGradGradGradGrad

 Leave Link  103 at Fri Sep 18 13:24:31 2015, MaxMem=  402653184 cpu:       0.0
 (Enter /share/apps/g09/l202.exe)
                          Input orientation:                          
 ---------------------------------------------------------------------
 Center     Atomic      Atomic             Coordinates (Angstroms)
 Number     Number       Type             X           Y           Z
 ---------------------------------------------------------------------
      1          6           0        1.642402    0.957711   -0.000744
      2          1           0        1.644109    1.604175    0.881790
      3          1           0        1.644160    1.602727   -0.884338
      4          1           0        2.586666    0.404388   -0.000260
      5          6           0        0.431767   -0.001555    0.000000
      6          6           0       -0.862956    0.856148   -0.000468
      7          1           0       -0.850932    1.524394   -0.883329
      8          1           0       -0.850936    1.525319    0.881692
      9          6           0       -2.157493    0.048047   -0.000041
     10          1           0       -2.232443   -0.595499    0.883877
     11          1           0       -3.031451    0.708938   -0.000293
     12          1           0       -2.232541   -0.596294   -0.883369
     13          6           0        0.494640   -0.887408   -1.258080
     14          1           0       -0.325599   -1.612071   -1.277539
     15          1           0        0.426659   -0.289725   -2.171997
     16          1           0        1.430763   -1.452286   -1.301758
     17          6           0        0.494818   -0.885689    1.259280
     18          1           0        1.430711   -1.450918    1.303321
     19          1           0        0.427505   -0.286711    2.172400
     20          1           0       -0.325737   -1.609958    1.280117
 ---------------------------------------------------------------------
                    Distance matrix (angstroms):
                    1          2          3          4          5
     1  C    0.000000
     2  H    1.093977   0.000000
     3  H    1.093978   1.766129   0.000000
     4  H    1.094441   1.762361   1.762364   0.000000
     5  C    1.544613   2.196747   2.196741   2.192802   0.000000
     6  C    2.507416   2.761032   2.761202   3.479077   1.553049
     7  H    2.704958   3.057326   2.496322   3.721734   2.180392
     8  H    2.705107   2.496291   3.057836   3.721751   2.180379
     9  C    3.907261   4.201350   4.201378   4.757523   2.589735
    10  H    4.267252   4.457154   4.794459   5.000528   2.869150
    11  H    4.680469   4.841527   4.841666   5.626366   3.535347
    12  H    4.267217   4.794399   4.456961   5.000600   2.869249
    13  C    2.510521   3.479699   2.768005   2.761779   1.539953
    14  H    3.479513   4.345882   3.790710   3.765480   2.190769
    15  H    2.783607   3.794029   2.592634   3.140679   2.191036
    16  H    2.746910   3.762360   3.090774   2.545044   2.190248
    17  C    2.510524   2.768175   3.479698   2.761624   1.539953
    18  H    2.747161   3.091411   3.762467   2.545136   2.190248
    19  H    2.783364   2.592537   3.793926   3.140071   2.191039
    20  H    3.479526   3.790727   4.345884   3.765507   2.190770
                    6          7          8          9         10
     6  C    0.000000
     7  H    1.107312   0.000000
     8  H    1.107312   1.765021   0.000000
     9  C    1.526058   2.160301   2.160296   0.000000
    10  H    2.182851   3.086347   2.531094   1.095938   0.000000
    11  H    2.173486   2.489856   2.489783   1.095710   1.766841
    12  H    2.182857   2.531040   3.086343   1.095936   1.767246
    13  C    2.542566   2.787076   3.494346   3.080836   3.479967
    14  H    2.830507   3.204495   3.844668   2.782774   3.056336
    15  H    2.773386   2.565917   3.775136   3.392540   4.062350
    16  H    3.504764   3.773836   4.340476   4.101347   4.350881
    17  C    2.542540   3.494326   2.786860   3.080991   2.768229
    18  H    3.504758   4.340486   3.773814   4.101324   3.785019
    19  H    2.773585   3.775180   2.565890   3.393196   2.971694
    20  H    2.830226   3.844540   3.203832   2.782645   2.195828
                   11         12         13         14         15
    11  H    0.000000
    12  H    1.766836   0.000000
    13  C    4.069848   2.768153   0.000000
    14  H    3.786829   2.196270   1.094672   0.000000
    15  H    4.203826   2.970840   1.094116   1.764808   0.000000
    16  H    5.126017   3.785177   1.094222   1.763782   1.765528
    17  C    4.069881   3.480400   2.517361   2.763361   3.483315
    18  H    5.125942   4.351024   2.784699   3.125929   3.799253
    19  H    4.204318   4.063177   3.483323   3.771714   4.344398
    20  H    3.786505   3.056810   2.763610   2.557657   3.771764
                   16         17         18         19         20
    16  H    0.000000
    17  C    2.784949   0.000000
    18  H    2.605079   1.094221   0.000000
    19  H    3.799324   1.094118   1.765531   0.000000
    20  H    3.126697   1.094674   1.763786   1.764802   0.000000
 Stoichiometry    C6H14
 Framework group  C1[X(C6H14)]
 Deg. of freedom    54
 Full point group                 C1      NOp   1
 Largest Abelian subgroup         C1      NOp   1
 Largest concise Abelian subgroup C1      NOp   1
                         Standard orientation:                         
 ---------------------------------------------------------------------
 Center     Atomic      Atomic             Coordinates (Angstroms)
 Number     Number       Type             X           Y           Z
 ---------------------------------------------------------------------
      1          6           0        1.642402    0.957710   -0.000744
      2          1           0        1.644109    1.604174    0.881790
      3          1           0        1.644160    1.602726   -0.884338
      4          1           0        2.586666    0.404387   -0.000260
      5          6           0        0.431767   -0.001555    0.000000
      6          6           0       -0.862956    0.856148   -0.000468
      7          1           0       -0.850932    1.524394   -0.883329
      8          1           0       -0.850936    1.525319    0.881692
      9          6           0       -2.157493    0.048048   -0.000041
     10          1           0       -2.232443   -0.595498    0.883877
     11          1           0       -3.031451    0.708939   -0.000293
     12          1           0       -2.232541   -0.596293   -0.883369
     13          6           0        0.494640   -0.887408   -1.258080
     14          1           0       -0.325600   -1.612071   -1.277539
     15          1           0        0.426659   -0.289725   -2.171997
     16          1           0        1.430763   -1.452287   -1.301758
     17          6           0        0.494818   -0.885689    1.259280
     18          1           0        1.430711   -1.450919    1.303321
     19          1           0        0.427505   -0.286711    2.172400
     20          1           0       -0.325738   -1.609958    1.280117
 ---------------------------------------------------------------------
 Rotational constants (GHZ):      4.2630667      2.5029337      2.4952931
 Leave Link  202 at Fri Sep 18 13:24:31 2015, MaxMem=  402653184 cpu:       0.0
 (Enter /share/apps/g09/l301.exe)
 Standard basis: 6-31G(d) (6D, 7F)
 Ernie: Thresh=  0.10000D-02 Tol=  0.10000D-05 Strict=F.
 There are   118 symmetry adapted basis functions of A   symmetry.
 Integral buffers will be    131072 words long.
 Raffenetti 2 integral format.
 Two-electron integral symmetry is turned on.
   118 basis functions,   224 primitive gaussians,   118 cartesian basis functions
    25 alpha electrons       25 beta electrons
       nuclear repulsion energy       265.5686586923 Hartrees.
 IExCor=  402 DFT=T Ex+Corr=B3LYP ExCW=0 ScaHFX=  0.200000
 ScaDFX=  0.800000  0.720000  1.000000  0.810000 ScalE2=  1.000000  1.000000
 IRadAn=      5 IRanWt=     -1 IRanGd=            0 ICorTp=0
 NAtoms=   20 NActive=   20 NUniq=   20 SFac= 7.50D-01 NAtFMM=   80 NAOKFM=F Big=F
 Leave Link  301 at Fri Sep 18 13:24:31 2015, MaxMem=  402653184 cpu:       0.1
 (Enter /share/apps/g09/l302.exe)
 NPDir=0 NMtPBC=     1 NCelOv=     1 NCel=       1 NClECP=     1 NCelD=      1
         NCelK=      1 NCelE2=     1 NClLst=     1 CellRange=     0.0.
 One-electron integrals computed using PRISM.
 NBasis=   118 RedAO= T  NBF=   118
 NBsUse=   118 1.00D-06 NBFU=   118
 Precomputing XC quadrature grid using
 IXCGrd= 2 IRadAn=           5 IRanWt=          -1 IRanGd=           0 AccXCQ= 1.00D-10.
 NRdTot=    1640 NPtTot=      438216 NUsed=      449969 NTot=      450001
 NSgBfM=   118   118   118   118   118 NAtAll=    20    20.
 Leave Link  302 at Fri Sep 18 13:24:32 2015, MaxMem=  402653184 cpu:       1.3
 (Enter /share/apps/g09/l303.exe)
 DipDrv:  MaxL=1.
 Leave Link  303 at Fri Sep 18 13:24:32 2015, MaxMem=  402653184 cpu:       0.1
 (Enter /share/apps/g09/l401.exe)
 Harris functional with IExCor=  402 diagonalized for initial guess.
 ExpMin= 1.61D-01 ExpMax= 3.05D+03 ExpMxC= 4.57D+02 IAcc=3 IRadAn=         5 AccDes= 0.00D+00
 HarFok:  IExCor=  402 AccDes= 0.00D+00 IRadAn=         5 IDoV= 1
 ScaDFX=  1.000000  1.000000  1.000000  1.000000
 FoFCou: FMM=F IPFlag=           0 FMFlag=      100000 FMFlg1=           0
         NFxFlg=           0 DoJE=T BraDBF=F KetDBF=T FulRan=T
         Omega=  0.000000  0.000000  1.000000  0.000000  0.000000 ICntrl=     500 IOpCl=  0
         NMat0=    1 NMatS0=    1 NMatT0=    0 NMatD0=    1 NMtDS0=    0 NMtDT0=    0
         I1Cent=           4 NGrid=           0.
 Petite list used in FoFCou.
 Harris En= -237.179108730721    
 Initial guess orbital symmetries:
       Occupied  (A) (A) (A) (A) (A) (A) (A) (A) (A) (A) (A) (A)
                 (A) (A) (A) (A) (A) (A) (A) (A) (A) (A) (A) (A)
                 (A)
       Virtual   (A) (A) (A) (A) (A) (A) (A) (A) (A) (A) (A) (A)
                 (A) (A) (A) (A) (A) (A) (A) (A) (A) (A) (A) (A)
                 (A) (A) (A) (A) (A) (A) (A) (A) (A) (A) (A) (A)
                 (A) (A) (A) (A) (A) (A) (A) (A) (A) (A) (A) (A)
                 (A) (A) (A) (A) (A) (A) (A) (A) (A) (A) (A) (A)
                 (A) (A) (A) (A) (A) (A) (A) (A) (A) (A) (A) (A)
                 (A) (A) (A) (A) (A) (A) (A) (A) (A) (A) (A) (A)
                 (A) (A) (A) (A) (A) (A) (A) (A) (A)
 The electronic state of the initial guess is 1-A.
 Leave Link  401 at Fri Sep 18 13:24:37 2015, MaxMem=  402653184 cpu:      10.7
 (Enter /share/apps/g09/l502.exe)
 Closed shell SCF:
 Requested convergence on RMS density matrix=1.00D-08 within 128 cycles.
 Requested convergence on MAX density matrix=1.00D-06.
 Requested convergence on             energy=1.00D-06.
 No special actions if energy rises.
 Using DIIS extrapolation, IDIIS=  1040.
 Integral symmetry usage will be decided dynamically.
       449776 words used for storage of precomputed grid.
 Keep R1 ints in memory in canonical form, NReq=26103831.
 IEnd=      511320 IEndB=      511320 NGot=   402653184 MDV=   377521788
 LenX=   377521788 LenY=   377507423
 Symmetry not used in FoFDir.
 MinBra= 0 MaxBra= 2 Meth= 1.
 IRaf=       0 NMat=   1 IRICut=       1 DoRegI=T DoRafI=F ISym2E= 0 JSym2E=0.
 Integral accuracy reduced to 1.0D-05 until final iterations.

 Cycle   1  Pass 0  IDiag  1:
 E= -236.786924715047    
 DIIS: error= 5.82D-02 at cycle   1 NSaved=   1.
 NSaved= 1 IEnMin= 1 EnMin= -236.786924715047     IErMin= 1 ErrMin= 5.82D-02
 ErrMax= 5.82D-02 EMaxC= 1.00D-01 BMatC= 2.66D-01 BMatP= 2.66D-01
 IDIUse=3 WtCom= 4.18D-01 WtEn= 5.82D-01
 Coeff-Com:  0.100D+01
 Coeff-En:   0.100D+01
 Coeff:      0.100D+01
 Gap=     0.308 Goal=   None    Shift=    0.000
 GapD=    0.308 DampG=1.000 DampE=0.500 DampFc=0.5000 IDamp=-1.
 Damping current iteration by 5.00D-01
 RMSDP=1.04D-02 MaxDP=1.44D-01              OVMax= 1.81D-01

 Cycle   2  Pass 0  IDiag  1:
 E= -236.915639423499     Delta-E=       -0.128714708452 Rises=F Damp=T
 DIIS: error= 8.89D-03 at cycle   2 NSaved=   2.
 NSaved= 2 IEnMin= 2 EnMin= -236.915639423499     IErMin= 2 ErrMin= 8.89D-03
 ErrMax= 8.89D-03 EMaxC= 1.00D-01 BMatC= 1.05D-02 BMatP= 2.66D-01
 IDIUse=3 WtCom= 9.11D-01 WtEn= 8.89D-02
 Coeff-Com:  0.901D-01 0.910D+00
 Coeff-En:   0.153D+00 0.847D+00
 Coeff:      0.957D-01 0.904D+00
 Gap=     0.392 Goal=   None    Shift=    0.000
 RMSDP=1.86D-03 MaxDP=2.77D-02 DE=-1.29D-01 OVMax= 1.08D-01

 Cycle   3  Pass 0  IDiag  1:
 E= -237.081410346371     Delta-E=       -0.165770922872 Rises=F Damp=F
 DIIS: error= 4.08D-03 at cycle   3 NSaved=   3.
 NSaved= 3 IEnMin= 3 EnMin= -237.081410346371     IErMin= 3 ErrMin= 4.08D-03
 ErrMax= 4.08D-03 EMaxC= 1.00D-01 BMatC= 1.70D-03 BMatP= 1.05D-02
 IDIUse=3 WtCom= 9.59D-01 WtEn= 4.08D-02
 Coeff-Com:  0.144D-01 0.236D+00 0.750D+00
 Coeff-En:   0.000D+00 0.000D+00 0.100D+01
 Coeff:      0.138D-01 0.226D+00 0.760D+00
 Gap=     0.377 Goal=   None    Shift=    0.000
 RMSDP=6.38D-04 MaxDP=1.59D-02 DE=-1.66D-01 OVMax= 1.36D-02

 Cycle   4  Pass 0  IDiag  1:
 E= -237.082296851253     Delta-E=       -0.000886504882 Rises=F Damp=F
 DIIS: error= 2.45D-03 at cycle   4 NSaved=   4.
 NSaved= 4 IEnMin= 4 EnMin= -237.082296851253     IErMin= 4 ErrMin= 2.45D-03
 ErrMax= 2.45D-03 EMaxC= 1.00D-01 BMatC= 8.19D-04 BMatP= 1.70D-03
 IDIUse=3 WtCom= 9.75D-01 WtEn= 2.45D-02
 Coeff-Com:  0.120D-03 0.311D-01 0.411D+00 0.558D+00
 Coeff-En:   0.000D+00 0.000D+00 0.323D+00 0.677D+00
 Coeff:      0.117D-03 0.303D-01 0.409D+00 0.561D+00
 Gap=     0.382 Goal=   None    Shift=    0.000
 RMSDP=2.48D-04 MaxDP=5.99D-03 DE=-8.87D-04 OVMax= 6.46D-03

 Cycle   5  Pass 0  IDiag  1:
 E= -237.083065462220     Delta-E=       -0.000768610968 Rises=F Damp=F
 DIIS: error= 1.96D-04 at cycle   5 NSaved=   5.
 NSaved= 5 IEnMin= 5 EnMin= -237.083065462220     IErMin= 5 ErrMin= 1.96D-04
 ErrMax= 1.96D-04 EMaxC= 1.00D-01 BMatC= 9.49D-06 BMatP= 8.19D-04
 IDIUse=3 WtCom= 9.98D-01 WtEn= 1.96D-03
 Coeff-Com:  0.140D-03-0.188D-02 0.918D-01 0.175D+00 0.734D+00
 Coeff-En:   0.000D+00 0.000D+00 0.000D+00 0.000D+00 0.100D+01
 Coeff:      0.140D-03-0.187D-02 0.917D-01 0.175D+00 0.735D+00
 Gap=     0.381 Goal=   None    Shift=    0.000
 RMSDP=2.70D-05 MaxDP=6.39D-04 DE=-7.69D-04 OVMax= 5.97D-04

 Cycle   6  Pass 0  IDiag  1:
 E= -237.083073955348     Delta-E=       -0.000008493127 Rises=F Damp=F
 DIIS: error= 4.11D-05 at cycle   6 NSaved=   6.
 NSaved= 6 IEnMin= 6 EnMin= -237.083073955348     IErMin= 6 ErrMin= 4.11D-05
 ErrMax= 4.11D-05 EMaxC= 1.00D-01 BMatC= 1.59D-07 BMatP= 9.49D-06
 IDIUse=1 WtCom= 1.00D+00 WtEn= 0.00D+00
 Coeff-Com:  0.145D-03-0.108D-02 0.250D-01 0.499D-01 0.242D+00 0.684D+00
 Coeff:      0.145D-03-0.108D-02 0.250D-01 0.499D-01 0.242D+00 0.684D+00
 Gap=     0.381 Goal=   None    Shift=    0.000
 RMSDP=5.78D-06 MaxDP=7.60D-05 DE=-8.49D-06 OVMax= 1.26D-04

 Initial convergence to 1.0D-05 achieved.  Increase integral accuracy.
 Cycle   7  Pass 1  IDiag  1:
 E= -237.083059395155     Delta-E=        0.000014560192 Rises=F Damp=F
 DIIS: error= 1.02D-05 at cycle   1 NSaved=   1.
 NSaved= 1 IEnMin= 1 EnMin= -237.083059395155     IErMin= 1 ErrMin= 1.02D-05
 ErrMax= 1.02D-05 EMaxC= 1.00D-01 BMatC= 2.36D-08 BMatP= 2.36D-08
 IDIUse=1 WtCom= 1.00D+00 WtEn= 0.00D+00
 Coeff-Com:  0.100D+01
 Coeff:      0.100D+01
 Gap=     0.381 Goal=   None    Shift=    0.000
 RMSDP=5.78D-06 MaxDP=7.60D-05 DE= 1.46D-05 OVMax= 6.29D-05

 Cycle   8  Pass 1  IDiag  1:
 E= -237.083059386426     Delta-E=        0.000000008729 Rises=F Damp=F
 DIIS: error= 1.31D-05 at cycle   2 NSaved=   2.
 NSaved= 2 IEnMin= 1 EnMin= -237.083059395155     IErMin= 1 ErrMin= 1.02D-05
 ErrMax= 1.31D-05 EMaxC= 1.00D-01 BMatC= 3.42D-08 BMatP= 2.36D-08
 IDIUse=1 WtCom= 1.00D+00 WtEn= 0.00D+00
 Coeff-Com:  0.548D+00 0.452D+00
 Coeff:      0.548D+00 0.452D+00
 Gap=     0.381 Goal=   None    Shift=    0.000
 RMSDP=1.51D-06 MaxDP=2.94D-05 DE= 8.73D-09 OVMax= 3.66D-05

 Cycle   9  Pass 1  IDiag  1:
 E= -237.083059420662     Delta-E=       -0.000000034236 Rises=F Damp=F
 DIIS: error= 5.24D-07 at cycle   3 NSaved=   3.
 NSaved= 3 IEnMin= 3 EnMin= -237.083059420662     IErMin= 3 ErrMin= 5.24D-07
 ErrMax= 5.24D-07 EMaxC= 1.00D-01 BMatC= 7.41D-11 BMatP= 2.36D-08
 IDIUse=1 WtCom= 1.00D+00 WtEn= 0.00D+00
 Coeff-Com:  0.119D-01 0.434D-01 0.945D+00
 Coeff:      0.119D-01 0.434D-01 0.945D+00
 Gap=     0.381 Goal=   None    Shift=    0.000
 RMSDP=1.32D-07 MaxDP=2.64D-06 DE=-3.42D-08 OVMax= 2.93D-06

 Cycle  10  Pass 1  IDiag  1:
 E= -237.083059420731     Delta-E=       -0.000000000069 Rises=F Damp=F
 DIIS: error= 2.67D-07 at cycle   4 NSaved=   4.
 NSaved= 4 IEnMin= 4 EnMin= -237.083059420731     IErMin= 4 ErrMin= 2.67D-07
 ErrMax= 2.67D-07 EMaxC= 1.00D-01 BMatC= 1.41D-11 BMatP= 7.41D-11
 IDIUse=1 WtCom= 1.00D+00 WtEn= 0.00D+00
 Coeff-Com: -0.926D-02 0.591D-02 0.386D+00 0.618D+00
 Coeff:     -0.926D-02 0.591D-02 0.386D+00 0.618D+00
 Gap=     0.381 Goal=   None    Shift=    0.000
 RMSDP=4.00D-08 MaxDP=7.71D-07 DE=-6.89D-11 OVMax= 1.12D-06

 Cycle  11  Pass 1  IDiag  1:
 E= -237.083059420741     Delta-E=       -0.000000000010 Rises=F Damp=F
 DIIS: error= 6.96D-08 at cycle   5 NSaved=   5.
 NSaved= 5 IEnMin= 5 EnMin= -237.083059420741     IErMin= 5 ErrMin= 6.96D-08
 ErrMax= 6.96D-08 EMaxC= 1.00D-01 BMatC= 1.22D-12 BMatP= 1.41D-11
 IDIUse=1 WtCom= 1.00D+00 WtEn= 0.00D+00
 Coeff-Com: -0.497D-02 0.144D-03 0.122D+00 0.288D+00 0.595D+00
 Coeff:     -0.497D-02 0.144D-03 0.122D+00 0.288D+00 0.595D+00
 Gap=     0.381 Goal=   None    Shift=    0.000
 RMSDP=9.27D-09 MaxDP=2.26D-07 DE=-1.03D-11 OVMax= 2.69D-07

 SCF Done:  E(RB3LYP) =  -237.083059421     A.U. after   11 cycles
             Convg  =    0.9268D-08             -V/T =  2.0103
 KE= 2.346630396047D+02 PE=-1.078079562914D+03 EE= 3.407648051966D+02
 Leave Link  502 at Fri Sep 18 13:25:30 2015, MaxMem=  402653184 cpu:     106.2
 (Enter /share/apps/g09/l601.exe)
 Copying SCF densities to generalized density rwf, IOpCl= 0 IROHF=0.

 **********************************************************************

            Population analysis using the SCF density.

 **********************************************************************

 Orbital symmetries:
       Occupied  (A) (A) (A) (A) (A) (A) (A) (A) (A) (A) (A) (A)
                 (A) (A) (A) (A) (A) (A) (A) (A) (A) (A) (A) (A)
                 (A)
       Virtual   (A) (A) (A) (A) (A) (A) (A) (A) (A) (A) (A) (A)
                 (A) (A) (A) (A) (A) (A) (A) (A) (A) (A) (A) (A)
                 (A) (A) (A) (A) (A) (A) (A) (A) (A) (A) (A) (A)
                 (A) (A) (A) (A) (A) (A) (A) (A) (A) (A) (A) (A)
                 (A) (A) (A) (A) (A) (A) (A) (A) (A) (A) (A) (A)
                 (A) (A) (A) (A) (A) (A) (A) (A) (A) (A) (A) (A)
                 (A) (A) (A) (A) (A) (A) (A) (A) (A) (A) (A) (A)
                 (A) (A) (A) (A) (A) (A) (A) (A) (A)
 The electronic state is 1-A.
 Alpha  occ. eigenvalues --  -10.19097 -10.17557 -10.16836 -10.16636 -10.16636
 Alpha  occ. eigenvalues --  -10.16563  -0.81652  -0.73057  -0.67854  -0.67791
 Alpha  occ. eigenvalues --   -0.61620  -0.52260  -0.45354  -0.45033  -0.43076
 Alpha  occ. eigenvalues --   -0.41851  -0.39301  -0.37612  -0.37145  -0.35874
 Alpha  occ. eigenvalues --   -0.35398  -0.33808  -0.31153  -0.30871  -0.30303
 Alpha virt. eigenvalues --    0.07823   0.12464   0.13388   0.13888   0.14317
 Alpha virt. eigenvalues --    0.14502   0.16162   0.17684   0.17750   0.19740
 Alpha virt. eigenvalues --    0.20696   0.20988   0.22509   0.22695   0.24821
 Alpha virt. eigenvalues --    0.25000   0.26307   0.26652   0.27216   0.49659
 Alpha virt. eigenvalues --    0.50593   0.51476   0.52358   0.52635   0.58794
 Alpha virt. eigenvalues --    0.60509   0.62352   0.63834   0.70369   0.71553
 Alpha virt. eigenvalues --    0.71994   0.74927   0.76158   0.82419   0.86576
 Alpha virt. eigenvalues --    0.87918   0.89042   0.90669   0.90771   0.90949
 Alpha virt. eigenvalues --    0.91530   0.91996   0.93920   0.93953   0.95771
 Alpha virt. eigenvalues --    0.96538   0.96831   0.98189   0.99945   1.00081
 Alpha virt. eigenvalues --    1.03932   1.05165   1.31203   1.39699   1.40694
 Alpha virt. eigenvalues --    1.48695   1.50491   1.61149   1.64241   1.67831
 Alpha virt. eigenvalues --    1.73091   1.73136   1.81056   1.87583   1.88062
 Alpha virt. eigenvalues --    1.93462   1.93740   1.98616   2.09047   2.10353
 Alpha virt. eigenvalues --    2.10568   2.12051   2.13586   2.24886   2.25535
 Alpha virt. eigenvalues --    2.25881   2.27822   2.27953   2.30348   2.36273
 Alpha virt. eigenvalues --    2.36456   2.49860   2.58704   2.68448   2.71688
 Alpha virt. eigenvalues --    2.74603   2.77129   4.13693   4.25908   4.31582
 Alpha virt. eigenvalues --    4.31604   4.44637   4.67886
          Condensed to atoms (all electrons):
              1          2          3          4          5          6
     1  C    5.150160   0.366435   0.366436   0.364189   0.389164  -0.057096
     2  H    0.366435   0.584398  -0.031179  -0.031547  -0.028689  -0.005171
     3  H    0.366436  -0.031179   0.584399  -0.031546  -0.028689  -0.005170
     4  H    0.364189  -0.031547  -0.031546   0.587750  -0.028014   0.005391
     5  C    0.389164  -0.028689  -0.028689  -0.028014   4.702624   0.397266
     6  C   -0.057096  -0.005171  -0.005170   0.005391   0.397266   5.023595
     7  H   -0.005189  -0.000238   0.005021  -0.000045  -0.034025   0.366973
     8  H   -0.005189   0.005021  -0.000238  -0.000045  -0.034026   0.366976
     9  C    0.004760   0.000009   0.000009  -0.000174  -0.040018   0.370132
    10  H    0.000084  -0.000005   0.000003   0.000001  -0.006376  -0.034854
    11  H   -0.000138  -0.000003  -0.000003   0.000002   0.004324  -0.027187
    12  H    0.000084   0.000003  -0.000005   0.000001  -0.006379  -0.034848
    13  C   -0.061190   0.005818  -0.004792  -0.004838   0.388093  -0.057457
    14  H    0.005693  -0.000196  -0.000047  -0.000059  -0.028885  -0.006055
    15  H   -0.004537  -0.000062   0.003866  -0.000142  -0.029362  -0.004645
    16  H   -0.005553  -0.000028  -0.000152   0.004305  -0.028539   0.005439
    17  C   -0.061189  -0.004790   0.005818  -0.004839   0.388099  -0.057457
    18  H   -0.005549  -0.000153  -0.000028   0.004304  -0.028540   0.005439
    19  H   -0.004541   0.003867  -0.000062  -0.000142  -0.029362  -0.004642
    20  H    0.005693  -0.000048  -0.000196  -0.000059  -0.028885  -0.006059
              7          8          9         10         11         12
     1  C   -0.005189  -0.005189   0.004760   0.000084  -0.000138   0.000084
     2  H   -0.000238   0.005021   0.000009  -0.000005  -0.000003   0.000003
     3  H    0.005021  -0.000238   0.000009   0.000003  -0.000003  -0.000005
     4  H   -0.000045  -0.000045  -0.000174   0.000001   0.000002   0.000001
     5  C   -0.034025  -0.034026  -0.040018  -0.006376   0.004324  -0.006379
     6  C    0.366973   0.366976   0.370132  -0.034854  -0.027187  -0.034848
     7  H    0.619948  -0.038102  -0.039650   0.005272  -0.003130  -0.004265
     8  H   -0.038102   0.619950  -0.039651  -0.004264  -0.003133   0.005272
     9  C   -0.039650  -0.039651   5.082857   0.377920   0.370572   0.377923
    10  H    0.005272  -0.004264   0.377920   0.574323  -0.030953  -0.033458
    11  H   -0.003130  -0.003133   0.370572  -0.030953   0.580001  -0.030954
    12  H   -0.004265   0.005272   0.377923  -0.033458  -0.030954   0.574318
    13  C   -0.006812   0.006090  -0.006695  -0.000517   0.000143   0.003288
    14  H   -0.000064  -0.000056   0.001419   0.000269  -0.000070   0.003393
    15  H    0.004599  -0.000033  -0.000270   0.000063  -0.000034   0.000365
    16  H   -0.000072  -0.000170   0.000136  -0.000030   0.000000  -0.000130
    17  C    0.006090  -0.006815  -0.006698   0.003283   0.000143  -0.000516
    18  H   -0.000170  -0.000072   0.000136  -0.000130   0.000000  -0.000030
    19  H   -0.000033   0.004599  -0.000269   0.000364  -0.000034   0.000063
    20  H   -0.000056  -0.000064   0.001417   0.003401  -0.000070   0.000268
             13         14         15         16         17         18
     1  C   -0.061190   0.005693  -0.004537  -0.005553  -0.061189  -0.005549
     2  H    0.005818  -0.000196  -0.000062  -0.000028  -0.004790  -0.000153
     3  H   -0.004792  -0.000047   0.003866  -0.000152   0.005818  -0.000028
     4  H   -0.004838  -0.000059  -0.000142   0.004305  -0.004839   0.004304
     5  C    0.388093  -0.028885  -0.029362  -0.028539   0.388099  -0.028540
     6  C   -0.057457  -0.006055  -0.004645   0.005439  -0.057457   0.005439
     7  H   -0.006812  -0.000064   0.004599  -0.000072   0.006090  -0.000170
     8  H    0.006090  -0.000056  -0.000033  -0.000170  -0.006815  -0.000072
     9  C   -0.006695   0.001419  -0.000270   0.000136  -0.006698   0.000136
    10  H   -0.000517   0.000269   0.000063  -0.000030   0.003283  -0.000130
    11  H    0.000143  -0.000070  -0.000034   0.000000   0.000143   0.000000
    12  H    0.003288   0.003393   0.000365  -0.000130  -0.000516  -0.000030
    13  C    5.152696   0.367403   0.366608   0.367197  -0.064537  -0.004349
    14  H    0.367403   0.579656  -0.031844  -0.030836  -0.004926  -0.000174
    15  H    0.366608  -0.031844   0.584105  -0.031273   0.005797  -0.000065
    16  H    0.367197  -0.030836  -0.031273   0.582841  -0.004347   0.003681
    17  C   -0.064537  -0.004926   0.005797  -0.004347   5.152699   0.367196
    18  H   -0.004349  -0.000174  -0.000065   0.003681   0.367196   0.582840
    19  H    0.005797  -0.000034  -0.000195  -0.000065   0.366610  -0.031273
    20  H   -0.004923   0.004003  -0.000034  -0.000175   0.367399  -0.030833
             19         20
     1  C   -0.004541   0.005693
     2  H    0.003867  -0.000048
     3  H   -0.000062  -0.000196
     4  H   -0.000142  -0.000059
     5  C   -0.029362  -0.028885
     6  C   -0.004642  -0.006059
     7  H   -0.000033  -0.000056
     8  H    0.004599  -0.000064
     9  C   -0.000269   0.001417
    10  H    0.000364   0.003401
    11  H   -0.000034  -0.000070
    12  H    0.000063   0.000268
    13  C    0.005797  -0.004923
    14  H   -0.000034   0.004003
    15  H   -0.000195  -0.000034
    16  H   -0.000065  -0.000175
    17  C    0.366610   0.367399
    18  H   -0.031273  -0.030833
    19  H    0.584105  -0.031845
    20  H   -0.031845   0.579657
 Mulliken atomic charges:
              1
     1  C   -0.442528
     2  H    0.136557
     3  H    0.136558
     4  H    0.135506
     5  C    0.110219
     6  C   -0.240571
     7  H    0.123949
     8  H    0.123949
     9  C   -0.453865
    10  H    0.145602
    11  H    0.140523
    12  H    0.145607
    13  C   -0.447025
    14  H    0.141410
    15  H    0.137093
    16  H    0.137769
    17  C   -0.447022
    18  H    0.137769
    19  H    0.137093
    20  H    0.141407
 Sum of Mulliken atomic charges =   0.00000
 Mulliken charges with hydrogens summed into heavy atoms:
              1
     1  C   -0.033907
     5  C    0.110219
     6  C    0.007328
     9  C   -0.022133
    13  C   -0.030753
    17  C   -0.030753
 Sum of Mulliken charges with hydrogens summed into heavy atoms =   0.00000
 Electronic spatial extent (au):  <R**2>=            699.6488
 Charge=              0.0000 electrons
 Dipole moment (field-independent basis, Debye):
    X=             -0.0308    Y=             -0.0019    Z=              0.0000  Tot=              0.0309
 Quadrupole moment (field-independent basis, Debye-Ang):
   XX=            -41.8652   YY=            -41.6440   ZZ=            -41.5302
   XY=             -0.2747   XZ=              0.0001   YZ=              0.0001
 Traceless Quadrupole moment (field-independent basis, Debye-Ang):
   XX=             -0.1854   YY=              0.0358   ZZ=              0.1496
   XY=             -0.2747   XZ=              0.0001   YZ=              0.0001
 Octapole moment (field-independent basis, Debye-Ang**2):
  XXX=              0.9873  YYY=             -0.1867  ZZZ=             -0.0041  XYY=             -0.6788
  XXY=             -1.1595  XXZ=              0.0008  XZZ=             -0.5294  YZZ=              1.8287
  YYZ=              0.0028  XYZ=              0.0005
 Hexadecapole moment (field-independent basis, Debye-Ang**3):
 XXXX=           -492.3480 YYYY=           -242.8824 ZZZZ=           -238.9190 XXXY=             -8.4814
 XXXZ=              0.0042 YYYX=             -0.0385 YYYZ=              0.0027 ZZZX=             -0.0026
 ZZZY=             -0.0008 XXYY=           -120.1372 XXZZ=           -122.4682 YYZZ=            -79.3609
 XXYZ=             -0.0009 YYXZ=              0.0022 ZZXY=              1.9664
 N-N= 2.655686586923D+02 E-N=-1.078079557459D+03  KE= 2.346630396047D+02
 No NMR shielding tensors so no spin-rotation constants.
 Leave Link  601 at Fri Sep 18 13:25:31 2015, MaxMem=  402653184 cpu:       0.3
 (Enter /share/apps/g09/l701.exe)
 Compute integral first derivatives.
 ... and contract with generalized density number  0.
 Leave Link  701 at Fri Sep 18 13:25:31 2015, MaxMem=  402653184 cpu:       0.3
 (Enter /share/apps/g09/l702.exe)
 L702 exits ... SP integral derivatives will be done elsewhere.
 Leave Link  702 at Fri Sep 18 13:25:31 2015, MaxMem=  402653184 cpu:       0.0
 (Enter /share/apps/g09/l703.exe)
 Compute integral first derivatives, UseDBF=F ICtDFT=           0.
 Integral derivatives from FoFDir, PRISM(SPDF).
 Calling FoFJK, ICntrl=      2127 FMM=F ISym2X=0 I1Cent= 0 IOpClX= 0 NMat=1 NMatS=1 NMatT=0.
 FoFCou: FMM=F IPFlag=           0 FMFlag=      100000 FMFlg1=         800
         NFxFlg=           0 DoJE=F BraDBF=F KetDBF=F FulRan=T
         Omega=  0.000000  0.000000  1.000000  0.000000  0.000000 ICntrl=    2127 IOpCl=  0
         NMat0=    1 NMatS0=    1 NMatT0=    0 NMatD0=    1 NMtDS0=    0 NMtDT0=    0
         I1Cent=           0 NGrid=           0.
 Symmetry not used in FoFCou.
 Leave Link  703 at Fri Sep 18 13:25:43 2015, MaxMem=  402653184 cpu:      25.0
 (Enter /share/apps/g09/l716.exe)
 Dipole        =-1.21227321D-02-7.36226571D-04-6.91902022D-06
 ***** Axes restored to original set *****
 -------------------------------------------------------------------
 Center     Atomic                   Forces (Hartrees/Bohr)
 Number     Number              X              Y              Z
 -------------------------------------------------------------------
      1        6          -0.000210507   -0.002323796    0.000001147
      2        1          -0.001011794    0.001118352    0.001847351
      3        1          -0.001011256    0.001115754   -0.001848298
      4        1           0.001389836   -0.001562601    0.000000626
      5        6           0.003933817    0.005371818   -0.000001599
      6        6           0.001960767    0.003360839   -0.000001191
      7        1           0.000642854   -0.003445967    0.003445943
      8        1           0.000643097   -0.003448532   -0.003443021
      9        6          -0.004798527   -0.000320111    0.000000115
     10        1          -0.000953064    0.000670980   -0.000222513
     11        1          -0.000348563    0.000077101    0.000000216
     12        1          -0.000950665    0.000669955    0.000220352
     13        6          -0.001723767   -0.000851869    0.000807641
     14        1           0.000276405   -0.001092869   -0.000309464
     15        1           0.000095293    0.001775826   -0.001453550
     16        1           0.001706708   -0.000472824    0.000787228
     17        6          -0.001723778   -0.000851820   -0.000804409
     18        1           0.001707109   -0.000474316   -0.000785990
     19        1           0.000096233    0.001777880    0.001449625
     20        1           0.000279803   -0.001093801    0.000309789
 -------------------------------------------------------------------
 Cartesian Forces:  Max     0.005371818 RMS     0.001753750
 Leave Link  716 at Fri Sep 18 13:25:43 2015, MaxMem=  402653184 cpu:       0.1
 (Enter /share/apps/g09/l103.exe)

 GradGradGradGradGradGradGradGradGradGradGradGradGradGradGradGradGradGrad
 Berny optimization.
 Internal  Forces:  Max     0.011507558 RMS     0.001837853
 Search for a local minimum.
 Step number   1 out of a maximum of  110
 All quantities printed in internal units (Hartrees-Bohrs-Radians)
 RMS Force = .18379D-02 SwitMx=.10000D-02 MixMth= 1
 Mixed Optimization -- RFO/linear search
 Second derivative matrix not updated -- first step.
     Eigenvalues ---    0.00230   0.00230   0.00237   0.00237   0.00421
     Eigenvalues ---    0.03305   0.04451   0.04748   0.04877   0.04893
     Eigenvalues ---    0.05316   0.05355   0.05355   0.05370   0.05370
     Eigenvalues ---    0.05375   0.05441   0.05526   0.08652   0.12437
     Eigenvalues ---    0.14269   0.14494   0.16000   0.16000   0.16000
     Eigenvalues ---    0.16000   0.16000   0.16000   0.16000   0.16000
     Eigenvalues ---    0.16000   0.16000   0.16000   0.16000   0.21916
     Eigenvalues ---    0.27394   0.28114   0.28523   0.28523   0.29790
     Eigenvalues ---    0.32886   0.32886   0.34135   0.34136   0.34161
     Eigenvalues ---    0.34278   0.34278   0.34304   0.34329   0.34329
     Eigenvalues ---    0.34341   0.34341   0.34357   0.343571000.00000
     Eigenvalues --- 1000.000001000.000001000.000001000.000001000.00000
     Eigenvalues --- 1000.000001000.000001000.000001000.000001000.00000
     Eigenvalues --- 1000.000001000.000001000.000001000.000001000.00000
     Eigenvalues --- 1000.000001000.000001000.000001000.000001000.00000
     Eigenvalues --- 1000.000001000.000001000.000001000.000001000.00000
     Eigenvalues --- 1000.000001000.000001000.000001000.000001000.00000
     Eigenvalues --- 1000.000001000.000001000.000001000.000001000.00000
     Eigenvalues --- 1000.000001000.000001000.000001000.000001000.00000
     Eigenvalues --- 1000.000001000.000001000.000001000.000001000.00000
 RFO step:  Lambda=-1.65234303D-03 EMin= 2.30000000D-03
 Linear search not attempted -- first point.
 Iteration  1 RMS(Cart)=  0.04774190 RMS(Int)=  0.00078538
 Iteration  2 RMS(Cart)=  0.00102054 RMS(Int)=  0.00007285
 Iteration  3 RMS(Cart)=  0.00000040 RMS(Int)=  0.00007285
 Variable       Old X    -DE/DX   Delta X   Delta X   Delta X     New X
                                 (Linear)    (Quad)   (Total)
    R1        2.06732   0.00215   0.00000   0.00623   0.00623   2.07354
    R2        2.06732   0.00215   0.00000   0.00622   0.00622   2.07354
    R3        2.06819   0.00199   0.00000   0.00577   0.00577   2.07397
    R4        2.91890  -0.00169   0.00000  -0.00597  -0.00597   2.91293
    R5        2.93484   0.00183   0.00000   0.00663   0.00663   2.94147
    R6        2.91009   0.00052   0.00000   0.00182   0.00182   2.91191
    R7        2.91009   0.00052   0.00000   0.00182   0.00182   2.91191
    R8        2.09252  -0.00482   0.00000  -0.01458  -0.01458   2.07793
    R9        2.09252  -0.00482   0.00000  -0.01458  -0.01458   2.07793
   R10        2.88383   0.00540   0.00000   0.01802   0.01802   2.90185
   R11        2.07102  -0.00051   0.00000  -0.00148  -0.00148   2.06954
   R12        2.07059   0.00033   0.00000   0.00095   0.00095   2.07154
   R13        2.07102  -0.00051   0.00000  -0.00148  -0.00148   2.06954
   R14        2.06863   0.00052   0.00000   0.00152   0.00152   2.07015
   R15        2.06758   0.00218   0.00000   0.00631   0.00631   2.07389
   R16        2.06778   0.00167   0.00000   0.00485   0.00485   2.07263
   R17        2.06778   0.00167   0.00000   0.00485   0.00485   2.07263
   R18        2.06758   0.00218   0.00000   0.00631   0.00631   2.07389
   R19        2.06863   0.00052   0.00000   0.00151   0.00151   2.07014
    A1        1.87880   0.00080   0.00000   0.00182   0.00177   1.88057
    A2        1.87241   0.00092   0.00000   0.00728   0.00729   1.87969
    A3        1.94747  -0.00106   0.00000  -0.00738  -0.00741   1.94006
    A4        1.87241   0.00092   0.00000   0.00728   0.00728   1.87969
    A5        1.94746  -0.00105   0.00000  -0.00737  -0.00740   1.94006
    A6        1.94147  -0.00035   0.00000  -0.00049  -0.00049   1.94098
    A7        1.88644  -0.00062   0.00000  -0.00663  -0.00656   1.87988
    A8        1.90166  -0.00024   0.00000  -0.00864  -0.00864   1.89302
    A9        1.90166  -0.00024   0.00000  -0.00866  -0.00865   1.89301
   A10        1.92995   0.00073   0.00000   0.01176   0.01169   1.94164
   A11        1.92992   0.00073   0.00000   0.01180   0.01174   1.94166
   A12        1.91359  -0.00038   0.00000  -0.00032  -0.00051   1.91309
   A13        1.90125  -0.00402   0.00000  -0.01937  -0.01958   1.88167
   A14        1.90124  -0.00402   0.00000  -0.01934  -0.01955   1.88168
   A15        1.99846   0.01151   0.00000   0.05563   0.05565   2.05411
   A16        1.84457   0.00207   0.00000  -0.00296  -0.00332   1.84125
   A17        1.90604  -0.00311   0.00000  -0.00924  -0.00915   1.89689
   A18        1.90603  -0.00311   0.00000  -0.00920  -0.00911   1.89692
   A19        1.94893   0.00092   0.00000   0.00741   0.00736   1.95630
   A20        1.93608  -0.00037   0.00000  -0.00568  -0.00566   1.93042
   A21        1.94894   0.00092   0.00000   0.00739   0.00734   1.95628
   A22        1.87530  -0.00064   0.00000  -0.00708  -0.00707   1.86823
   A23        1.87564  -0.00031   0.00000   0.00428   0.00418   1.87983
   A24        1.87530  -0.00063   0.00000  -0.00707  -0.00706   1.86824
   A25        1.94415   0.00160   0.00000   0.01220   0.01221   1.95636
   A26        1.94511  -0.00084   0.00000  -0.00460  -0.00466   1.94045
   A27        1.94390  -0.00162   0.00000  -0.01294  -0.01296   1.93094
   A28        1.87572   0.00018   0.00000   0.00654   0.00651   1.88223
   A29        1.87401  -0.00011   0.00000  -0.00177  -0.00173   1.87228
   A30        1.87740   0.00085   0.00000   0.00096   0.00088   1.87827
   A31        1.94390  -0.00162   0.00000  -0.01294  -0.01296   1.93094
   A32        1.94511  -0.00084   0.00000  -0.00461  -0.00467   1.94044
   A33        1.94415   0.00160   0.00000   0.01221   0.01222   1.95637
   A34        1.87740   0.00085   0.00000   0.00095   0.00087   1.87827
   A35        1.87401  -0.00011   0.00000  -0.00178  -0.00174   1.87227
   A36        1.87571   0.00018   0.00000   0.00655   0.00653   1.88223
    D1        1.05109  -0.00021   0.00000  -0.00386  -0.00384   1.04725
    D2       -3.13409   0.00016   0.00000   0.00142   0.00144  -3.13265
    D3       -1.04688  -0.00059   0.00000  -0.00918  -0.00916  -1.05604
    D4       -1.05147   0.00022   0.00000   0.00402   0.00400  -1.04747
    D5        1.04654   0.00059   0.00000   0.00929   0.00928   1.05582
    D6        3.13375  -0.00016   0.00000  -0.00130  -0.00132   3.13242
    D7        3.14141   0.00000   0.00000   0.00008   0.00008   3.14149
    D8       -1.04378   0.00037   0.00000   0.00536   0.00536  -1.03841
    D9        1.04343  -0.00037   0.00000  -0.00524  -0.00524   1.03819
   D10        1.00187  -0.00093   0.00000  -0.01221  -0.01205   0.98982
   D11       -1.00221   0.00093   0.00000   0.01207   0.01192  -0.99029
   D12        3.14143   0.00000   0.00000  -0.00010  -0.00010   3.14133
   D13       -1.07831  -0.00068   0.00000  -0.00449  -0.00428  -1.08259
   D14       -3.08238   0.00118   0.00000   0.01979   0.01969  -3.06270
   D15        1.06126   0.00025   0.00000   0.00762   0.00767   1.06893
   D16        3.08203  -0.00118   0.00000  -0.01992  -0.01981   3.06222
   D17        1.07795   0.00068   0.00000   0.00436   0.00415   1.08211
   D18       -1.06159  -0.00025   0.00000  -0.00781  -0.00786  -1.06945
   D19        3.10180  -0.00045   0.00000  -0.03112  -0.03112   3.07068
   D20       -1.08664   0.00029   0.00000  -0.01764  -0.01764  -1.10428
   D21        1.01006  -0.00030   0.00000  -0.02837  -0.02832   0.98174
   D22       -1.11043  -0.00093   0.00000  -0.03754  -0.03757  -1.14800
   D23        0.98431  -0.00018   0.00000  -0.02406  -0.02409   0.96022
   D24        3.08101  -0.00078   0.00000  -0.03479  -0.03476   3.04624
   D25        1.02202   0.00021   0.00000  -0.01521  -0.01524   1.00678
   D26        3.11676   0.00096   0.00000  -0.00174  -0.00176   3.11500
   D27       -1.06973   0.00036   0.00000  -0.01247  -0.01244  -1.08217
   D28       -1.01060   0.00030   0.00000   0.02866   0.02861  -0.98199
   D29        1.08611  -0.00029   0.00000   0.01792   0.01792   1.10403
   D30       -3.10235   0.00045   0.00000   0.03142   0.03142  -3.07093
   D31       -3.08153   0.00078   0.00000   0.03506   0.03503  -3.04650
   D32       -0.98482   0.00018   0.00000   0.02432   0.02434  -0.96048
   D33        1.10991   0.00093   0.00000   0.03782   0.03784   1.14775
   D34        1.06919  -0.00036   0.00000   0.01276   0.01273   1.08192
   D35       -3.11729  -0.00095   0.00000   0.00202   0.00204  -3.11525
   D36       -1.02256  -0.00021   0.00000   0.01552   0.01554  -1.00702
   D37        1.05018   0.00044   0.00000   0.00792   0.00795   1.05812
   D38        3.14149   0.00000   0.00000   0.00006   0.00006   3.14155
   D39       -1.05038  -0.00044   0.00000  -0.00781  -0.00784  -1.05822
   D40       -3.09604   0.00091   0.00000   0.01470   0.01478  -3.08126
   D41       -1.00473   0.00047   0.00000   0.00684   0.00689  -0.99784
   D42        1.08658   0.00003   0.00000  -0.00102  -0.00100   1.08558
   D43       -1.08677  -0.00003   0.00000   0.00107   0.00105  -1.08572
   D44        1.00455  -0.00047   0.00000  -0.00679  -0.00684   0.99771
   D45        3.09586  -0.00091   0.00000  -0.01466  -0.01473   3.08113
         Item               Value     Threshold  Converged?
 Maximum Force            0.011508     0.000015     NO 
 RMS     Force            0.001838     0.000010     NO 
 Maximum Displacement     0.180608     0.000060     NO 
 RMS     Displacement     0.047723     0.000040     NO 
 Predicted change in Energy=-8.419652D-04
 GradGradGradGradGradGradGradGradGradGradGradGradGradGradGradGradGradGrad

 Leave Link  103 at Fri Sep 18 13:25:43 2015, MaxMem=  402653184 cpu:       0.1
 (Enter /share/apps/g09/l202.exe)
                          Input orientation:                          
 ---------------------------------------------------------------------
 Center     Atomic      Atomic             Coordinates (Angstroms)
 Number     Number       Type             X           Y           Z
 ---------------------------------------------------------------------
      1          6           0        1.629453    0.953644   -0.000760
      2          1           0        1.614016    1.601050    0.885033
      3          1           0        1.613951    1.599675   -0.887556
      4          1           0        2.583049    0.410364   -0.000374
      5          6           0        0.433533   -0.018907    0.000038
      6          6           0       -0.869356    0.832773   -0.000418
      7          1           0       -0.836604    1.497145   -0.876002
      8          1           0       -0.836662    1.498014    0.874508
      9          6           0       -2.210641    0.085111   -0.000116
     10          1           0       -2.328017   -0.549745    0.884497
     11          1           0       -3.047192    0.793532   -0.000438
     12          1           0       -2.327975   -0.550505   -0.884190
     13          6           0        0.522988   -0.903349   -1.258604
     14          1           0       -0.261780   -1.667325   -1.281922
     15          1           0        0.434532   -0.302377   -2.172616
     16          1           0        1.486866   -1.425312   -1.296514
     17          6           0        0.523268   -0.901609    1.259881
     18          1           0        1.487056   -1.423711    1.298172
     19          1           0        0.435267   -0.299339    2.173083
     20          1           0       -0.261639   -1.665398    1.284559
 ---------------------------------------------------------------------
                    Distance matrix (angstroms):
                    1          2          3          4          5
     1  C    0.000000
     2  H    1.097271   0.000000
     3  H    1.097271   1.772590   0.000000
     4  H    1.097496   1.772203   1.772203   0.000000
     5  C    1.541454   2.191123   2.191122   2.191961   0.000000
     6  C    2.501731   2.746162   2.746264   3.478150   1.556560
     7  H    2.672616   3.019532   2.452725   3.693486   2.163124
     8  H    2.672856   2.452866   3.020051   3.693620   2.163133
     9  C    3.937089   4.208273   4.208201   4.804711   2.646219
    10  H    4.324977   4.490606   4.826933   5.081670   2.947917
    11  H    4.679386   4.812796   4.812806   5.643264   3.574284
    12  H    4.324830   4.826866   4.490219   5.081590   2.947945
    13  C    2.500971   3.472396   2.755541   2.748242   1.540915
    14  H    3.476725   4.347020   3.787768   3.748628   2.200946
    15  H    2.778918   3.789913   2.580738   3.137318   2.191069
    16  H    2.712699   3.732851   3.055150   2.500260   2.183696
    17  C    2.500965   2.755639   3.472391   2.748129   1.540916
    18  H    2.712807   3.055484   3.732878   2.500251   2.183698
    19  H    2.778784   2.580698   3.789863   3.136966   2.191066
    20  H    3.476731   3.787794   4.347025   3.748611   2.200953
                    6          7          8          9         10
     6  C    0.000000
     7  H    1.099596   0.000000
     8  H    1.099596   1.750511   0.000000
     9  C    1.535592   2.156152   2.156173   0.000000
    10  H    2.195933   3.084384   2.533290   1.095153   0.000000
    11  H    2.178190   2.479594   2.479571   1.096211   1.762020
    12  H    2.195924   2.533204   3.084391   1.095154   1.768687
    13  C    2.556516   2.785183   3.487888   3.167581   3.584152
    14  H    2.874351   3.241769   3.872990   2.917553   3.195573
    15  H    2.776173   2.556418   3.760627   3.444828   4.127809
    16  H    3.511494   3.757139   4.319485   4.199236   4.480709
    17  C    2.556528   3.487875   2.784981   3.167881   2.897335
    18  H    3.511514   4.319471   3.757078   4.199412   3.935699
    19  H    2.776297   3.760576   2.556282   3.445493   3.059231
    20  H    2.874255   3.873020   3.241291   2.917753   2.382152
                   11         12         13         14         15
    11  H    0.000000
    12  H    1.762024   0.000000
    13  C    4.148322   2.897011   0.000000
    14  H    3.931481   2.382150   1.095475   0.000000
    15  H    4.247562   3.058276   1.097457   1.772364   0.000000
    16  H    5.211599   3.935519   1.096788   1.765375   1.770860
    17  C    4.148505   3.584676   2.518485   2.768282   3.485541
    18  H    5.211714   4.481033   2.781601   3.126445   3.796258
    19  H    4.248068   4.128621   3.485541   3.780783   4.345700
    20  H    3.931521   3.196280   2.768400   2.566482   3.780813
                   16         17         18         19         20
    16  H    0.000000
    17  C    2.781715   0.000000
    18  H    2.594686   1.096788   0.000000
    19  H    3.796284   1.097457   1.770859   0.000000
    20  H    3.126795   1.095473   1.765370   1.772362   0.000000
 Stoichiometry    C6H14
 Framework group  C1[X(C6H14)]
 Deg. of freedom    54
 Full point group                 C1      NOp   1
 Largest Abelian subgroup         C1      NOp   1
 Largest concise Abelian subgroup C1      NOp   1
                         Standard orientation:                         
 ---------------------------------------------------------------------
 Center     Atomic      Atomic             Coordinates (Angstroms)
 Number     Number       Type             X           Y           Z
 ---------------------------------------------------------------------
      1          6           0        1.600323    1.007785   -0.000327
      2          1           0        1.564844    1.653924    0.885816
      3          1           0        1.564710    1.653500   -0.886774
      4          1           0        2.570329    0.494380   -0.000278
      5          6           0        0.435181   -0.001435    0.000002
      6          6           0       -0.893528    0.809375    0.000066
      7          1           0       -0.881478    1.474914   -0.875162
      8          1           0       -0.881453    1.474841    0.875349
      9          6           0       -2.210948    0.020422    0.000027
     10          1           0       -2.308497   -0.618248    0.884303
     11          1           0       -3.069095    0.702523    0.000126
     12          1           0       -2.308543   -0.618056   -0.884384
     13          6           0        0.551978   -0.881996   -1.259120
     14          1           0       -0.208689   -1.669961   -1.282813
     15          1           0        0.444845   -0.283569   -2.172804
     16          1           0        1.531598   -1.373754   -1.297356
     17          6           0        0.552363   -0.881601    1.259366
     18          1           0        1.531902   -1.373543    1.297331
     19          1           0        0.445759   -0.282845    2.172896
     20          1           0       -0.208446   -1.669409    1.283669
 ---------------------------------------------------------------------
 Rotational constants (GHZ):      4.2579723      2.4512858      2.4428396
 Leave Link  202 at Fri Sep 18 13:25:43 2015, MaxMem=  402653184 cpu:       0.0
 (Enter /share/apps/g09/l301.exe)
 Standard basis: 6-31G(d) (6D, 7F)
 Ernie: Thresh=  0.10000D-02 Tol=  0.10000D-05 Strict=F.
 There are   118 symmetry adapted basis functions of A   symmetry.
 Integral buffers will be    131072 words long.
 Raffenetti 2 integral format.
 Two-electron integral symmetry is turned on.
   118 basis functions,   224 primitive gaussians,   118 cartesian basis functions
    25 alpha electrons       25 beta electrons
       nuclear repulsion energy       264.4550329177 Hartrees.
 IExCor=  402 DFT=T Ex+Corr=B3LYP ExCW=0 ScaHFX=  0.200000
 ScaDFX=  0.800000  0.720000  1.000000  0.810000 ScalE2=  1.000000  1.000000
 IRadAn=      5 IRanWt=     -1 IRanGd=            0 ICorTp=0
 NAtoms=   20 NActive=   20 NUniq=   20 SFac= 7.50D-01 NAtFMM=   80 NAOKFM=F Big=F
 Leave Link  301 at Fri Sep 18 13:25:43 2015, MaxMem=  402653184 cpu:       0.1
 (Enter /share/apps/g09/l302.exe)
 NPDir=0 NMtPBC=     1 NCelOv=     1 NCel=       1 NClECP=     1 NCelD=      1
         NCelK=      1 NCelE2=     1 NClLst=     1 CellRange=     0.0.
 One-electron integrals computed using PRISM.
 NBasis=   118 RedAO= T  NBF=   118
 NBsUse=   118 1.00D-06 NBFU=   118
 Precomputing XC quadrature grid using
 IXCGrd= 2 IRadAn=           5 IRanWt=          -1 IRanGd=           0 AccXCQ= 1.00D-10.
 NRdTot=    1640 NPtTot=      438820 NUsed=      450573 NTot=      450605
 NSgBfM=   118   118   118   118   118 NAtAll=    20    20.
 Leave Link  302 at Fri Sep 18 13:25:44 2015, MaxMem=  402653184 cpu:       1.2
 (Enter /share/apps/g09/l303.exe)
 DipDrv:  MaxL=1.
 Leave Link  303 at Fri Sep 18 13:25:44 2015, MaxMem=  402653184 cpu:       0.1
 (Enter /share/apps/g09/l401.exe)
 Initial guess read from the read-write file.
 B after Tr=     0.000000    0.000000    0.000000
         Rot=    1.000000    0.000000    0.000000    0.000000 Ang=   0.00 deg.
 Guess basis will be translated and rotated to current coordinates.
 Initial guess orbital symmetries:
       Occupied  (A) (A) (A) (A) (A) (A) (A) (A) (A) (A) (A) (A)
                 (A) (A) (A) (A) (A) (A) (A) (A) (A) (A) (A) (A)
                 (A)
       Virtual   (A) (A) (A) (A) (A) (A) (A) (A) (A) (A) (A) (A)
                 (A) (A) (A) (A) (A) (A) (A) (A) (A) (A) (A) (A)
                 (A) (A) (A) (A) (A) (A) (A) (A) (A) (A) (A) (A)
                 (A) (A) (A) (A) (A) (A) (A) (A) (A) (A) (A) (A)
                 (A) (A) (A) (A) (A) (A) (A) (A) (A) (A) (A) (A)
                 (A) (A) (A) (A) (A) (A) (A) (A) (A) (A) (A) (A)
                 (A) (A) (A) (A) (A) (A) (A) (A) (A) (A) (A) (A)
                 (A) (A) (A) (A) (A) (A) (A) (A) (A)
 The electronic state of the initial guess is 1-A.
 Generating alternative initial guess.
 Harris functional with IExCor=  402 diagonalized for initial guess.
 ExpMin= 1.61D-01 ExpMax= 3.05D+03 ExpMxC= 4.57D+02 IAcc=3 IRadAn=         5 AccDes= 0.00D+00
 HarFok:  IExCor=  402 AccDes= 0.00D+00 IRadAn=         5 IDoV= 1
 ScaDFX=  1.000000  1.000000  1.000000  1.000000
 FoFCou: FMM=F IPFlag=           0 FMFlag=      100000 FMFlg1=           0
         NFxFlg=           0 DoJE=T BraDBF=F KetDBF=T FulRan=T
         Omega=  0.000000  0.000000  1.000000  0.000000  0.000000 ICntrl=     500 IOpCl=  0
         NMat0=    1 NMatS0=    1 NMatT0=    0 NMatD0=    1 NMtDS0=    0 NMtDT0=    0
         I1Cent=           4 NGrid=           0.
 Petite list used in FoFCou.
 Harris En= -237.179178182305    
 Leave Link  401 at Fri Sep 18 13:25:49 2015, MaxMem=  402653184 cpu:      10.3
 (Enter /share/apps/g09/l502.exe)
 Closed shell SCF:
 Requested convergence on RMS density matrix=1.00D-08 within 128 cycles.
 Requested convergence on MAX density matrix=1.00D-06.
 Requested convergence on             energy=1.00D-06.
 No special actions if energy rises.
 Using DIIS extrapolation, IDIIS=  1040.
 Integral symmetry usage will be decided dynamically.
       450380 words used for storage of precomputed grid.
 Keep R1 ints in memory in canonical form, NReq=26104435.
 IEnd=      511924 IEndB=      511924 NGot=   402653184 MDV=   377521184
 LenX=   377521184 LenY=   377506819
 Symmetry not used in FoFDir.
 MinBra= 0 MaxBra= 2 Meth= 1.
 IRaf=       0 NMat=   1 IRICut=       1 DoRegI=T DoRafI=F ISym2E= 0 JSym2E=0.
 Integral accuracy reduced to 1.0D-05 until final iterations.

 Cycle   1  Pass 0  IDiag  1:
 E= -237.079699288384    
 DIIS: error= 3.06D-03 at cycle   1 NSaved=   1.
 NSaved= 1 IEnMin= 1 EnMin= -237.079699288384     IErMin= 1 ErrMin= 3.06D-03
 ErrMax= 3.06D-03 EMaxC= 1.00D-01 BMatC= 1.92D-03 BMatP= 1.92D-03
 IDIUse=3 WtCom= 9.69D-01 WtEn= 3.06D-02
 Coeff-Com:  0.100D+01
 Coeff-En:   0.100D+01
 Coeff:      0.100D+01
 Gap=     0.380 Goal=   None    Shift=    0.000
 GapD=    0.380 DampG=1.000 DampE=1.000 DampFc=1.0000 IDamp=-1.
 RMSDP=5.26D-04 MaxDP=8.33D-03              OVMax= 1.61D-02

 Cycle   2  Pass 0  IDiag  1:
 E= -237.083519114411     Delta-E=       -0.003819826027 Rises=F Damp=F
 DIIS: error= 3.59D-04 at cycle   2 NSaved=   2.
 NSaved= 2 IEnMin= 2 EnMin= -237.083519114411     IErMin= 2 ErrMin= 3.59D-04
 ErrMax= 3.59D-04 EMaxC= 1.00D-01 BMatC= 3.05D-05 BMatP= 1.92D-03
 IDIUse=3 WtCom= 9.96D-01 WtEn= 3.59D-03
 Coeff-Com: -0.586D-01 0.106D+01
 Coeff-En:   0.000D+00 0.100D+01
 Coeff:     -0.584D-01 0.106D+01
 Gap=     0.379 Goal=   None    Shift=    0.000
 RMSDP=1.06D-04 MaxDP=1.34D-03 DE=-3.82D-03 OVMax= 2.35D-03

 Cycle   3  Pass 0  IDiag  1:
 E= -237.083555878443     Delta-E=       -0.000036764031 Rises=F Damp=F
 DIIS: error= 3.09D-04 at cycle   3 NSaved=   3.
 NSaved= 3 IEnMin= 3 EnMin= -237.083555878443     IErMin= 3 ErrMin= 3.09D-04
 ErrMax= 3.09D-04 EMaxC= 1.00D-01 BMatC= 1.57D-05 BMatP= 3.05D-05
 IDIUse=3 WtCom= 9.97D-01 WtEn= 3.09D-03
 Coeff-Com: -0.388D-01 0.470D+00 0.569D+00
 Coeff-En:   0.000D+00 0.000D+00 0.100D+01
 Coeff:     -0.387D-01 0.468D+00 0.570D+00
 Gap=     0.380 Goal=   None    Shift=    0.000
 RMSDP=4.11D-05 MaxDP=5.65D-04 DE=-3.68D-05 OVMax= 8.25D-04

 Cycle   4  Pass 0  IDiag  1:
 E= -237.083571153998     Delta-E=       -0.000015275556 Rises=F Damp=F
 DIIS: error= 9.38D-05 at cycle   4 NSaved=   4.
 NSaved= 4 IEnMin= 4 EnMin= -237.083571153998     IErMin= 4 ErrMin= 9.38D-05
 ErrMax= 9.38D-05 EMaxC= 1.00D-01 BMatC= 7.92D-07 BMatP= 1.57D-05
 IDIUse=1 WtCom= 1.00D+00 WtEn= 0.00D+00
 Coeff-Com: -0.143D-01 0.153D+00 0.254D+00 0.608D+00
 Coeff:     -0.143D-01 0.153D+00 0.254D+00 0.608D+00
 Gap=     0.380 Goal=   None    Shift=    0.000
 RMSDP=8.38D-06 MaxDP=1.38D-04 DE=-1.53D-05 OVMax= 1.72D-04

 Initial convergence to 1.0D-05 achieved.  Increase integral accuracy.
 Cycle   5  Pass 1  IDiag  1:
 E= -237.083540871060     Delta-E=        0.000030282938 Rises=F Damp=F
 DIIS: error= 1.04D-05 at cycle   1 NSaved=   1.
 NSaved= 1 IEnMin= 1 EnMin= -237.083540871060     IErMin= 1 ErrMin= 1.04D-05
 ErrMax= 1.04D-05 EMaxC= 1.00D-01 BMatC= 2.61D-08 BMatP= 2.61D-08
 IDIUse=1 WtCom= 1.00D+00 WtEn= 0.00D+00
 Coeff-Com:  0.100D+01
 Coeff:      0.100D+01
 Gap=     0.380 Goal=   None    Shift=    0.000
 RMSDP=8.38D-06 MaxDP=1.38D-04 DE= 3.03D-05 OVMax= 5.69D-05

 Cycle   6  Pass 1  IDiag  1:
 E= -237.083540877108     Delta-E=       -0.000000006048 Rises=F Damp=F
 DIIS: error= 1.22D-05 at cycle   2 NSaved=   2.
 NSaved= 2 IEnMin= 2 EnMin= -237.083540877108     IErMin= 1 ErrMin= 1.04D-05
 ErrMax= 1.22D-05 EMaxC= 1.00D-01 BMatC= 2.25D-08 BMatP= 2.61D-08
 IDIUse=1 WtCom= 1.00D+00 WtEn= 0.00D+00
 Coeff-Com:  0.480D+00 0.520D+00
 Coeff:      0.480D+00 0.520D+00
 Gap=     0.380 Goal=   None    Shift=    0.000
 RMSDP=1.45D-06 MaxDP=2.66D-05 DE=-6.05D-09 OVMax= 3.68D-05

 Cycle   7  Pass 1  IDiag  1:
 E= -237.083540898756     Delta-E=       -0.000000021647 Rises=F Damp=F
 DIIS: error= 2.23D-06 at cycle   3 NSaved=   3.
 NSaved= 3 IEnMin= 3 EnMin= -237.083540898756     IErMin= 3 ErrMin= 2.23D-06
 ErrMax= 2.23D-06 EMaxC= 1.00D-01 BMatC= 8.26D-10 BMatP= 2.25D-08
 IDIUse=1 WtCom= 1.00D+00 WtEn= 0.00D+00
 Coeff-Com:  0.924D-01 0.194D+00 0.714D+00
 Coeff:      0.924D-01 0.194D+00 0.714D+00
 Gap=     0.380 Goal=   None    Shift=    0.000
 RMSDP=3.23D-07 MaxDP=5.47D-06 DE=-2.16D-08 OVMax= 7.95D-06

 Cycle   8  Pass 1  IDiag  1:
 E= -237.083540899538     Delta-E=       -0.000000000783 Rises=F Damp=F
 DIIS: error= 4.57D-07 at cycle   4 NSaved=   4.
 NSaved= 4 IEnMin= 4 EnMin= -237.083540899538     IErMin= 4 ErrMin= 4.57D-07
 ErrMax= 4.57D-07 EMaxC= 1.00D-01 BMatC= 5.30D-11 BMatP= 8.26D-10
 IDIUse=1 WtCom= 1.00D+00 WtEn= 0.00D+00
 Coeff-Com: -0.110D-01 0.231D-01 0.254D+00 0.734D+00
 Coeff:     -0.110D-01 0.231D-01 0.254D+00 0.734D+00
 Gap=     0.380 Goal=   None    Shift=    0.000
 RMSDP=8.71D-08 MaxDP=1.31D-06 DE=-7.83D-10 OVMax= 1.64D-06

 Cycle   9  Pass 1  IDiag  1:
 E= -237.083540899590     Delta-E=       -0.000000000052 Rises=F Damp=F
 DIIS: error= 1.34D-07 at cycle   5 NSaved=   5.
 NSaved= 5 IEnMin= 5 EnMin= -237.083540899590     IErMin= 5 ErrMin= 1.34D-07
 ErrMax= 1.34D-07 EMaxC= 1.00D-01 BMatC= 2.87D-12 BMatP= 5.30D-11
 IDIUse=1 WtCom= 1.00D+00 WtEn= 0.00D+00
 Coeff-Com: -0.698D-02 0.957D-02 0.124D+00 0.386D+00 0.488D+00
 Coeff:     -0.698D-02 0.957D-02 0.124D+00 0.386D+00 0.488D+00
 Gap=     0.380 Goal=   None    Shift=    0.000
 RMSDP=1.58D-08 MaxDP=3.47D-07 DE=-5.18D-11 OVMax= 3.65D-07

 Cycle  10  Pass 1  IDiag  1:
 E= -237.083540899593     Delta-E=       -0.000000000003 Rises=F Damp=F
 DIIS: error= 1.49D-08 at cycle   6 NSaved=   6.
 NSaved= 6 IEnMin= 6 EnMin= -237.083540899593     IErMin= 6 ErrMin= 1.49D-08
 ErrMax= 1.49D-08 EMaxC= 1.00D-01 BMatC= 3.48D-14 BMatP= 2.87D-12
 IDIUse=1 WtCom= 1.00D+00 WtEn= 0.00D+00
 Coeff-Com: -0.517D-03-0.356D-04 0.286D-02 0.144D-01 0.102D+00 0.882D+00
 Coeff:     -0.517D-03-0.356D-04 0.286D-02 0.144D-01 0.102D+00 0.882D+00
 Gap=     0.380 Goal=   None    Shift=    0.000
 RMSDP=2.36D-09 MaxDP=3.27D-08 DE=-3.41D-12 OVMax= 4.15D-08

 SCF Done:  E(RB3LYP) =  -237.083540900     A.U. after   10 cycles
             Convg  =    0.2359D-08             -V/T =  2.0105
 KE= 2.346267256253D+02 PE=-1.075825928447D+03 EE= 3.396606290043D+02
 Leave Link  502 at Fri Sep 18 13:26:44 2015, MaxMem=  402653184 cpu:     109.9
 (Enter /share/apps/g09/l701.exe)
 Compute integral first derivatives.
 ... and contract with generalized density number  0.
 Leave Link  701 at Fri Sep 18 13:26:44 2015, MaxMem=  402653184 cpu:       0.3
 (Enter /share/apps/g09/l702.exe)
 L702 exits ... SP integral derivatives will be done elsewhere.
 Leave Link  702 at Fri Sep 18 13:26:45 2015, MaxMem=  402653184 cpu:       0.0
 (Enter /share/apps/g09/l703.exe)
 Compute integral first derivatives, UseDBF=F ICtDFT=           0.
 Integral derivatives from FoFDir, PRISM(SPDF).
 Calling FoFJK, ICntrl=      2127 FMM=F ISym2X=0 I1Cent= 0 IOpClX= 0 NMat=1 NMatS=1 NMatT=0.
 FoFCou: FMM=F IPFlag=           0 FMFlag=      100000 FMFlg1=         800
         NFxFlg=           0 DoJE=F BraDBF=F KetDBF=F FulRan=T
         Omega=  0.000000  0.000000  1.000000  0.000000  0.000000 ICntrl=    2127 IOpCl=  0
         NMat0=    1 NMatS0=    1 NMatT0=    0 NMatD0=    1 NMtDS0=    0 NMtDT0=    0
         I1Cent=           0 NGrid=           0.
 Symmetry not used in FoFCou.
 Leave Link  703 at Fri Sep 18 13:26:58 2015, MaxMem=  402653184 cpu:      26.2
 (Enter /share/apps/g09/l716.exe)
 Dipole        =-1.45721043D-02 5.86793082D-03-4.68639448D-06
 ***** Axes restored to original set *****
 -------------------------------------------------------------------
 Center     Atomic                   Forces (Hartrees/Bohr)
 Number     Number              X              Y              Z
 -------------------------------------------------------------------
      1        6           0.000185894    0.000836115   -0.000000663
      2        1           0.000100291    0.000115763   -0.000083892
      3        1           0.000100061    0.000115926    0.000084216
      4        1          -0.000423813    0.000014772   -0.000000059
      5        6          -0.000473676    0.000605761   -0.000000986
      6        6           0.000839360    0.000131248   -0.000000816
      7        1          -0.000159691   -0.000326706   -0.000355215
      8        1          -0.000159584   -0.000326599    0.000355377
      9        6           0.001207588   -0.000729056    0.000001109
     10        1           0.000394267   -0.000472494    0.000411890
     11        1           0.000613362    0.000664182   -0.000000308
     12        1           0.000393934   -0.000471713   -0.000410011
     13        6          -0.000807662   -0.000040309   -0.000072724
     14        1          -0.000644925    0.000039863    0.000074320
     15        1           0.000033601   -0.000001134    0.000059415
     16        1           0.000111296   -0.000077429    0.000035873
     17        6          -0.000808278   -0.000038676    0.000072814
     18        1           0.000111559   -0.000077060   -0.000035888
     19        1           0.000032850   -0.000001350   -0.000059571
     20        1          -0.000646433    0.000038896   -0.000074879
 -------------------------------------------------------------------
 Cartesian Forces:  Max     0.001207588 RMS     0.000385611
 Leave Link  716 at Fri Sep 18 13:26:58 2015, MaxMem=  402653184 cpu:       0.0
 (Enter /share/apps/g09/l103.exe)

 GradGradGradGradGradGradGradGradGradGradGradGradGradGradGradGradGradGrad
 Berny optimization.
 Using GEDIIS/GDIIS optimizer.
 Internal  Forces:  Max     0.003850986 RMS     0.000692361
 Search for a local minimum.
 Step number   2 out of a maximum of  110
 All quantities printed in internal units (Hartrees-Bohrs-Radians)
 RMS Force = .69236D-03 SwitMx=.10000D-02 MixMth= 2
 Mixed Optimization -- En-DIIS/RFO-DIIS
 Update second derivatives using D2CorX and points    1    2
 DE= -4.81D-04 DEPred=-8.42D-04 R= 5.72D-01
 SS=  1.41D+00  RLast= 1.43D-01 DXNew= 5.0454D-01 4.2889D-01
 Trust test= 5.72D-01 RLast= 1.43D-01 DXMaxT set to 4.29D-01
 Use linear search instead of GDIIS.
[...]
 Leave Link  103 at Fri Sep 18 13:35:58 2015, MaxMem=  402653184 cpu:       0.1
 (Enter /share/apps/g09/l202.exe)
                          Input orientation:                          
 ---------------------------------------------------------------------
 Center     Atomic      Atomic             Coordinates (Angstroms)
 Number     Number       Type             X           Y           Z
 ---------------------------------------------------------------------
      1          6           0        1.634373    0.958965   -0.000729
      2          1           0        1.621186    1.606609    0.884876
      3          1           0        1.621086    1.605424   -0.887197
      4          1           0        2.585396    0.412164   -0.000417
      5          6           0        0.435846   -0.010732   -0.000012
      6          6           0       -0.864722    0.836170   -0.000509
      7          1           0       -0.840498    1.497878   -0.878447
      8          1           0       -0.840423    1.499027    0.876560
      9          6           0       -2.193004    0.068861    0.000048
     10          1           0       -2.299493   -0.567744    0.885416
     11          1           0       -3.036093    0.769390   -0.000371
     12          1           0       -2.299569   -0.568896   -0.884483
     13          6           0        0.513103   -0.897494   -1.258112
     14          1           0       -0.291146   -1.641251   -1.284203
     15          1           0        0.443048   -0.294676   -2.172458
     16          1           0        1.464671   -1.442294   -1.291201
     17          6           0        0.513244   -0.895808    1.259266
     18          1           0        1.464821   -1.440553    1.292985
     19          1           0        0.443279   -0.291767    2.172811
     20          1           0       -0.290993   -1.639538    1.286438
 ---------------------------------------------------------------------
                    Distance matrix (angstroms):
                    1          2          3          4          5
     1  C    0.000000
     2  H    1.097229   0.000000
     3  H    1.097229   1.772074   0.000000
     4  H    1.097012   1.772045   1.772045   0.000000
     5  C    1.541681   2.191769   2.191769   2.190755   0.000000
     6  C    2.502110   2.749040   2.749037   3.476075   1.552006
     7  H    2.680635   3.030020   2.463948   3.699522   2.162547
     8  H    2.680656   2.463973   3.030047   3.699540   2.162548
     9  C    3.929517   4.206618   4.206603   4.790717   2.630055
    10  H    4.311775   4.483251   4.820348   5.060342   2.928537
    11  H    4.674312   4.814026   4.814013   5.632828   3.558504
    12  H    4.311761   4.820350   4.483214   5.060330   2.928538
    13  C    2.506930   3.477179   2.762210   2.755249   1.541145
    14  H    3.480812   4.348622   3.788818   3.760201   2.199148
    15  H    2.776199   3.788164   2.578769   3.131620   2.190935
    16  H    2.731330   3.749083   3.078355   2.522135   2.185181
    17  C    2.506930   2.762208   3.477179   2.755250   1.541146
    18  H    2.731324   3.078343   3.749078   2.522129   2.185181
    19  H    2.776204   2.578773   3.788167   3.131630   2.190935
    20  H    3.480812   3.788819   4.348622   3.760198   2.199149
                    6          7          8          9         10
     6  C    0.000000
     7  H    1.099645   0.000000
     8  H    1.099645   1.755007   0.000000
     9  C    1.533981   2.154789   2.154791   0.000000
    10  H    2.194176   3.083290   2.529923   1.095666   0.000000
    11  H    2.172398   2.474338   2.474338   1.096148   1.764972
    12  H    2.194176   2.529916   3.083291   1.095666   1.769900
    13  C    2.546676   2.777443   3.483126   3.136849   3.551640
    14  H    2.848592   3.212562   3.851227   2.861966   3.145334
    15  H    2.776047   2.556405   3.763134   3.435216   4.116636
    16  H    3.504762   3.758827   4.320187   4.162871   4.435249
    17  C    2.546679   3.483126   2.777429   3.136877   2.856376
    18  H    3.504763   4.320184   3.758815   4.162896   3.885611
    19  H    2.776045   3.763122   2.556384   3.435249   3.042424
    20  H    2.848601   3.851241   3.212548   2.862005   2.311630
                   11         12         13         14         15
    11  H    0.000000
    12  H    1.764972   0.000000
    13  C    4.117913   2.856344   0.000000
    14  H    3.872228   2.311598   1.095751   0.000000
    15  H    4.237288   3.042371   1.097418   1.772371   0.000000
    16  H    5.178287   3.885582   1.096988   1.767067   1.771258
    17  C    4.117932   3.551683   2.517378   2.769830   3.484682
    18  H    5.178305   4.435289   2.776468   3.124995   3.790296
    19  H    4.237310   4.116681   3.484682   3.783045   4.345269
    20  H    3.872258   3.145401   2.769825   2.570641   3.783045
                   16         17         18         19         20
    16  H    0.000000
    17  C    2.776462   0.000000
    18  H    2.584187   1.096988   0.000000
    19  H    3.790295   1.097418   1.771257   0.000000
    20  H    3.124978   1.095751   1.767066   1.772371   0.000000
 Stoichiometry    C6H14
 Framework group  C1[X(C6H14)]
 Deg. of freedom    54
 Full point group                 C1      NOp   1
 Largest Abelian subgroup         C1      NOp   1
 Largest concise Abelian subgroup C1      NOp   1
                         Standard orientation:                         
 ---------------------------------------------------------------------
 Center     Atomic      Atomic             Coordinates (Angstroms)
 Number     Number       Type             X           Y           Z
 ---------------------------------------------------------------------
      1          6           0       -1.618029    0.989663   -0.000016
      2          1           0       -1.593680    1.636362   -0.886074
      3          1           0       -1.593654    1.636420    0.885999
      4          1           0       -2.578313    0.459295    0.000016
      5          6           0       -0.436353   -0.000500    0.000000
      6          6           0        0.878585    0.823914   -0.000043
      7          1           0        0.865717    1.486557    0.877429
      8          1           0        0.865714    1.486474   -0.877578
      9          6           0        2.193477    0.033878   -0.000004
     10          1           0        2.289031   -0.605086   -0.884921
     11          1           0        3.048487    0.719807   -0.000041
     12          1           0        2.289033   -0.604995    0.884979
     13          6           0       -0.528885   -0.884918    1.258718
     14          1           0        0.262455   -1.642376    1.285366
     15          1           0       -0.448502   -0.282752    2.172644
     16          1           0       -1.489681   -1.413252    1.292150
     17          6           0       -0.528920   -0.884999   -1.258660
     18          1           0       -1.489722   -1.413324   -1.292037
     19          1           0       -0.448550   -0.282892   -2.172626
     20          1           0        0.262411   -1.642466   -1.285276
 ---------------------------------------------------------------------
 Rotational constants (GHZ):      4.2614442      2.4695909      2.4611512
 Leave Link  202 at Fri Sep 18 13:35:58 2015, MaxMem=  402653184 cpu:       0.0
 (Enter /share/apps/g09/l601.exe)
 Copying SCF densities to generalized density rwf, IOpCl= 0 IROHF=0.

 **********************************************************************

            Population analysis using the SCF density.

 **********************************************************************

 Orbital symmetries:
       Occupied  (A) (A) (A) (A) (A) (A) (A) (A) (A) (A) (A) (A)
                 (A) (A) (A) (A) (A) (A) (A) (A) (A) (A) (A) (A)
                 (A)
       Virtual   (A) (A) (A) (A) (A) (A) (A) (A) (A) (A) (A) (A)
                 (A) (A) (A) (A) (A) (A) (A) (A) (A) (A) (A) (A)
                 (A) (A) (A) (A) (A) (A) (A) (A) (A) (A) (A) (A)
                 (A) (A) (A) (A) (A) (A) (A) (A) (A) (A) (A) (A)
                 (A) (A) (A) (A) (A) (A) (A) (A) (A) (A) (A) (A)
                 (A) (A) (A) (A) (A) (A) (A) (A) (A) (A) (A) (A)
                 (A) (A) (A) (A) (A) (A) (A) (A) (A) (A) (A) (A)
                 (A) (A) (A) (A) (A) (A) (A) (A) (A)
 The electronic state is 1-A.
 Alpha  occ. eigenvalues --  -10.19076 -10.17436 -10.16949 -10.16703 -10.16702
 Alpha  occ. eigenvalues --  -10.16691  -0.81596  -0.73038  -0.67745  -0.67728
 Alpha  occ. eigenvalues --   -0.61747  -0.52183  -0.45194  -0.45090  -0.43035
 Alpha  occ. eigenvalues --   -0.41750  -0.39343  -0.37696  -0.37166  -0.35836
 Alpha  occ. eigenvalues --   -0.35236  -0.33908  -0.31107  -0.30915  -0.30319
 Alpha virt. eigenvalues --    0.07666   0.12426   0.13492   0.13722   0.14285
 Alpha virt. eigenvalues --    0.14615   0.16126   0.17675   0.17805   0.19652
 Alpha virt. eigenvalues --    0.20521   0.20875   0.22602   0.22710   0.24418
 Alpha virt. eigenvalues --    0.25052   0.25955   0.26376   0.27386   0.49454
 Alpha virt. eigenvalues --    0.50718   0.51532   0.51940   0.52588   0.58829
 Alpha virt. eigenvalues --    0.60661   0.62256   0.63815   0.69666   0.71226
 Alpha virt. eigenvalues --    0.71594   0.75126   0.76590   0.82131   0.86413
 Alpha virt. eigenvalues --    0.88203   0.89100   0.90635   0.90803   0.91124
 Alpha virt. eigenvalues --    0.91195   0.91728   0.93368   0.93886   0.95725
 Alpha virt. eigenvalues --    0.96245   0.96918   0.98220   1.00069   1.00113
 Alpha virt. eigenvalues --    1.02878   1.04091   1.29488   1.39600   1.40800
 Alpha virt. eigenvalues --    1.48798   1.51245   1.60971   1.64393   1.68253
 Alpha virt. eigenvalues --    1.73247   1.73282   1.80644   1.87326   1.88284
 Alpha virt. eigenvalues --    1.93326   1.93699   1.97878   2.09238   2.10331
 Alpha virt. eigenvalues --    2.10539   2.12027   2.13110   2.24763   2.25217
 Alpha virt. eigenvalues --    2.25535   2.27361   2.27562   2.30833   2.35841
 Alpha virt. eigenvalues --    2.36652   2.49128   2.58406   2.69360   2.71788
 Alpha virt. eigenvalues --    2.74321   2.76394   4.13254   4.25497   4.31456
 Alpha virt. eigenvalues --    4.31517   4.44976   4.67751
          Condensed to atoms (all electrons):
              1          2          3          4          5          6
     1  C    5.152579   0.365870   0.365870   0.364013   0.388816  -0.057155
     2  H    0.365870   0.584624  -0.030899  -0.030793  -0.029292  -0.005347
     3  H    0.365870  -0.030899   0.584624  -0.030793  -0.029292  -0.005347
     4  H    0.364013  -0.030793  -0.030793   0.586068  -0.028137   0.005375
     5  C    0.388816  -0.029292  -0.029292  -0.028137   4.705910   0.398737
     6  C   -0.057155  -0.005347  -0.005347   0.005375   0.398737   5.019640
     7  H   -0.005443  -0.000242   0.005312  -0.000041  -0.035349   0.367322
     8  H   -0.005442   0.005312  -0.000242  -0.000041  -0.035348   0.367322
     9  C    0.004652  -0.000003  -0.000003  -0.000164  -0.036771   0.369579
    10  H    0.000061  -0.000004   0.000002   0.000001  -0.005649  -0.033910
    11  H   -0.000132  -0.000003  -0.000003   0.000002   0.004081  -0.026919
    12  H    0.000061   0.000002  -0.000004   0.000001  -0.005649  -0.033910
    13  C   -0.061884   0.005893  -0.004914  -0.004930   0.387364  -0.057429
    14  H    0.005656  -0.000195  -0.000049  -0.000056  -0.028058  -0.005686
    15  H   -0.004610  -0.000065   0.003971  -0.000137  -0.029653  -0.004797
    16  H   -0.005801  -0.000026  -0.000151   0.004462  -0.029205   0.005486
    17  C   -0.061884  -0.004914   0.005892  -0.004930   0.387364  -0.057428
    18  H   -0.005801  -0.000151  -0.000026   0.004462  -0.029205   0.005486
    19  H   -0.004610   0.003971  -0.000065  -0.000137  -0.029653  -0.004797
    20  H    0.005656  -0.000049  -0.000195  -0.000056  -0.028058  -0.005686
              7          8          9         10         11         12
     1  C   -0.005443  -0.005442   0.004652   0.000061  -0.000132   0.000061
     2  H   -0.000242   0.005312  -0.000003  -0.000004  -0.000003   0.000002
     3  H    0.005312  -0.000242  -0.000003   0.000002  -0.000003  -0.000004
     4  H   -0.000041  -0.000041  -0.000164   0.000001   0.000002   0.000001
     5  C   -0.035349  -0.035348  -0.036771  -0.005649   0.004081  -0.005649
     6  C    0.367322   0.367322   0.369579  -0.033910  -0.026919  -0.033910
     7  H    0.620359  -0.037919  -0.040132   0.005239  -0.003285  -0.004144
     8  H   -0.037919   0.620358  -0.040132  -0.004144  -0.003285   0.005239
     9  C   -0.040132  -0.040132   5.078470   0.377363   0.371468   0.377363
    10  H    0.005239  -0.004144   0.377363   0.574140  -0.031496  -0.032863
    11  H   -0.003285  -0.003285   0.371468  -0.031496   0.579524  -0.031496
    12  H   -0.004144   0.005239   0.377363  -0.032863  -0.031496   0.574139
    13  C   -0.006970   0.006302  -0.005550  -0.000428   0.000090   0.003343
    14  H   -0.000085  -0.000052   0.001784   0.000198  -0.000063   0.002814
    15  H    0.004697  -0.000036  -0.000222   0.000053  -0.000031   0.000287
    16  H   -0.000076  -0.000183   0.000087  -0.000021   0.000000  -0.000117
    17  C    0.006302  -0.006970  -0.005550   0.003343   0.000090  -0.000428
    18  H   -0.000183  -0.000076   0.000087  -0.000117   0.000000  -0.000021
    19  H   -0.000036   0.004697  -0.000221   0.000287  -0.000031   0.000053
    20  H   -0.000052  -0.000085   0.001783   0.002814  -0.000063   0.000198
             13         14         15         16         17         18
     1  C   -0.061884   0.005656  -0.004610  -0.005801  -0.061884  -0.005801
     2  H    0.005893  -0.000195  -0.000065  -0.000026  -0.004914  -0.000151
     3  H   -0.004914  -0.000049   0.003971  -0.000151   0.005892  -0.000026
     4  H   -0.004930  -0.000056  -0.000137   0.004462  -0.004930   0.004462
     5  C    0.387364  -0.028058  -0.029653  -0.029205   0.387364  -0.029205
     6  C   -0.057429  -0.005686  -0.004797   0.005486  -0.057428   0.005486
     7  H   -0.006970  -0.000085   0.004697  -0.000076   0.006302  -0.000183
     8  H    0.006302  -0.000052  -0.000036  -0.000183  -0.006970  -0.000076
     9  C   -0.005550   0.001784  -0.000222   0.000087  -0.005550   0.000087
    10  H   -0.000428   0.000198   0.000053  -0.000021   0.003343  -0.000117
    11  H    0.000090  -0.000063  -0.000031   0.000000   0.000090   0.000000
    12  H    0.003343   0.002814   0.000287  -0.000117  -0.000428  -0.000021
    13  C    5.151349   0.367360   0.366071   0.366901  -0.064453  -0.004447
    14  H    0.367360   0.578763  -0.031247  -0.031124  -0.004813  -0.000184
    15  H    0.366071  -0.031247   0.585322  -0.030966   0.005797  -0.000069
    16  H    0.366901  -0.031124  -0.030966   0.584865  -0.004447   0.003850
    17  C   -0.064453  -0.004813   0.005797  -0.004447   5.151348   0.366901
    18  H   -0.004447  -0.000184  -0.000069   0.003850   0.366901   0.584865
    19  H    0.005797  -0.000033  -0.000196  -0.000069   0.366071  -0.030966
    20  H   -0.004813   0.003933  -0.000033  -0.000184   0.367361  -0.031124
             19         20
     1  C   -0.004610   0.005656
     2  H    0.003971  -0.000049
     3  H   -0.000065  -0.000195
     4  H   -0.000137  -0.000056
     5  C   -0.029653  -0.028058
     6  C   -0.004797  -0.005686
     7  H   -0.000036  -0.000052
     8  H    0.004697  -0.000085
     9  C   -0.000221   0.001783
    10  H    0.000287   0.002814
    11  H   -0.000031  -0.000063
    12  H    0.000053   0.000198
    13  C    0.005797  -0.004813
    14  H   -0.000033   0.003933
    15  H   -0.000196  -0.000033
    16  H   -0.000069  -0.000184
    17  C    0.366071   0.367361
    18  H   -0.030966  -0.031124
    19  H    0.585321  -0.031247
    20  H   -0.031247   0.578764
 Mulliken atomic charges:
              1
     1  C   -0.440472
     2  H    0.136311
     3  H    0.136311
     4  H    0.135829
     5  C    0.107047
     6  C   -0.240535
     7  H    0.124726
     8  H    0.124726
     9  C   -0.453889
    10  H    0.145131
    11  H    0.141550
    12  H    0.145132
    13  C   -0.444652
    14  H    0.141135
    15  H    0.135863
    16  H    0.136720
    17  C   -0.444651
    18  H    0.136720
    19  H    0.135863
    20  H    0.141135
 Sum of Mulliken atomic charges =   0.00000
 Mulliken charges with hydrogens summed into heavy atoms:
              1
     1  C   -0.032021
     5  C    0.107047
     6  C    0.008916
     9  C   -0.022075
    13  C   -0.030934
    17  C   -0.030933
 Sum of Mulliken charges with hydrogens summed into heavy atoms =   0.00000
 Electronic spatial extent (au):  <R**2>=            705.7495
 Charge=              0.0000 electrons
 Dipole moment (field-independent basis, Debye):
    X=              0.0374    Y=              0.0165    Z=              0.0000  Tot=              0.0409
 Quadrupole moment (field-independent basis, Debye-Ang):
   XX=            -41.7875   YY=            -41.6710   ZZ=            -41.5862
   XY=              0.2725   XZ=              0.0000   YZ=              0.0000
 Traceless Quadrupole moment (field-independent basis, Debye-Ang):
   XX=             -0.1060   YY=              0.0106   ZZ=              0.0954
   XY=              0.2725   XZ=              0.0000   YZ=              0.0000
 Octapole moment (field-independent basis, Debye-Ang**2):
  XXX=             -0.8801  YYY=             -0.2587  ZZZ=             -0.0002  XYY=              0.8983
  XXY=             -1.1194  XXZ=              0.0000  XZZ=              0.7118  YZZ=              1.9070
  YYZ=              0.0001  XYZ=              0.0000
 Hexadecapole moment (field-independent basis, Debye-Ang**3):
 XXXX=           -499.7570 YYYY=           -243.1453 ZZZZ=           -239.3834 XXXY=              8.8215
 XXXZ=             -0.0004 YYYX=             -0.1378 YYYZ=              0.0002 ZZZX=              0.0003
 ZZZY=             -0.0001 XXYY=           -121.9925 XXZZ=           -123.9810 YYZZ=            -79.4873
 XXYZ=             -0.0002 YYXZ=             -0.0002 ZZXY=             -2.1497
 N-N= 2.648707042121D+02 E-N=-1.076665451011D+03  KE= 2.346368007536D+02
 No NMR shielding tensors so no spin-rotation constants.
 Leave Link  601 at Fri Sep 18 13:35:58 2015, MaxMem=  402653184 cpu:       0.3
 (Enter /share/apps/g09/l9999.exe)
 1\1\GINC-COMPUTE-0-6\FOpt\RB3LYP\6-31G(d)\C6H14\HETANJIN\18-Sep-2015\0
 \\#p B3LYP/6-31G(d) opt=tight int=ultrafine\\using B3LYP/6-31G(d) to d
 o opt and freq calc.\\0,1\C,1.6343732511,0.9589649411,-0.0007286087\H,
 1.6211859191,1.6066088751,0.884876136\H,1.6210855395,1.6054239253,-0.8
 871972464\H,2.5853961722,0.4121637543,-0.0004169043\C,0.4358462368,-0.
 010732494,-0.0000122577\C,-0.8647220521,0.8361702421,-0.0005090011\H,-
 0.8404982411,1.4978779197,-0.8784469527\H,-0.8404228233,1.4990269251,0
 .8765596726\C,-2.1930039463,0.0688607775,0.0000478036\H,-2.2994932449,
 -0.5677443459,0.885416413\H,-3.036092935,0.769389592,-0.0003714896\H,-
 2.2995691703,-0.5688956553,-0.8844829574\C,0.5131034704,-0.8974944112,
 -1.2581115405\H,-0.291145573,-1.6412511368,-1.2842026934\H,0.443047638
 2,-0.2946764592,-2.172457584\H,1.4646708352,-1.4422942329,-1.291201184
 8\C,0.5132444701,-0.8958079215,1.2592656802\H,1.4648211507,-1.44055287
 89,1.2929849131\H,0.4432785855,-0.2917665199,2.1728108442\H,-0.2909932
 826,-1.6395378967,1.2864378778\\Version=EM64L-G09RevA.01\State=1-A\HF=
 -237.0836718\RMSD=9.400e-09\RMSF=5.793e-07\Dipole=-0.0146079,0.0067372
 ,-0.0000039\Quadrupole=-0.085725,0.0148333,0.0708917,-0.2010212,0.0001
 416,0.0000455\PG=C01 [X(C6H14)]\\@


 NO HUMAN INVESTIGATION CAN BECOME REAL SCIENCE
 WITHOUT GOING THROUGH MATHEMATICAL PEOPLE.
 -- LEONARDO DA VINCI, IN "PENSIERI" CA. 1492
 Job cpu time:  0 days  0 hours 22 minutes 52.1 seconds.
 File lengths (MBytes):  RWF=     15 Int=      0 D2E=      0 Chk=      2 Scr=      1
 Normal termination of Gaussian 09 at Fri Sep 18 13:35:58 2015.
