 Entering Gaussian System, Link 0=/share/apps/g09/g09
 Input=C6H14_3_03_1_opt_B3L.gjf
 Output=C6H14_3_03_1_opt_B3L.log
 Initial command:
 /share/apps/g09/l1.exe /state/partition1/Gau-9448.inp -scrdir=/state/partition1/
 Entering Link 1 = /share/apps/g09/l1.exe PID=      9449.
  
 Copyright (c) 1988,1990,1992,1993,1995,1998,2003,2009, Gaussian, Inc.
                  All Rights Reserved.
  
 This is part of the Gaussian(R) 09 program.  It is based on
 the Gaussian(R) 03 system (copyright 2003, Gaussian, Inc.),
 the Gaussian(R) 98 system (copyright 1998, Gaussian, Inc.),
 the Gaussian(R) 94 system (copyright 1995, Gaussian, Inc.),
 the Gaussian 92(TM) system (copyright 1992, Gaussian, Inc.),
 the Gaussian 90(TM) system (copyright 1990, Gaussian, Inc.),
 the Gaussian 88(TM) system (copyright 1988, Gaussian, Inc.),
 the Gaussian 86(TM) system (copyright 1986, Carnegie Mellon
 University), and the Gaussian 82(TM) system (copyright 1983,
 Carnegie Mellon University). Gaussian is a federally registered
 trademark of Gaussian, Inc.
  
 This software contains proprietary and confidential information,
 including trade secrets, belonging to Gaussian, Inc.
  
 This software is provided under written license and may be
 used, copied, transmitted, or stored only in accord with that
 written license.
  
 The following legend is applicable only to US Government
 contracts under FAR:
  
                    RESTRICTED RIGHTS LEGEND
  
 Use, reproduction and disclosure by the US Government is
 subject to restrictions as set forth in subparagraphs (a)
 and (c) of the Commercial Computer Software - Restricted
 Rights clause in FAR 52.227-19.
  
 Gaussian, Inc.
 340 Quinnipiac St., Bldg. 40, Wallingford CT 06492
  
  
 ---------------------------------------------------------------
 Warning -- This program may not be used in any manner that
 competes with the business of Gaussian, Inc. or will provide
 assistance to any competitor of Gaussian, Inc.  The licensee
 of this program is prohibited from giving any competitor of
 Gaussian, Inc. access to this program.  By using this program,
 the user acknowledges that Gaussian, Inc. is engaged in the
 business of creating and licensing software in the field of
 computational chemistry and represents and warrants to the
 licensee that it is not a competitor of Gaussian, Inc. and that
 it will not use this program in any manner prohibited above.
 ---------------------------------------------------------------
  

 Cite this work as:
 Gaussian 09, Revision A.01,
 M. J. Frisch, G. W. Trucks, H. B. Schlegel, G. E. Scuseria, 
 M. A. Robb, J. R. Cheeseman, G. Scalmani, V. Barone, B. Mennucci, 
 G. A. Petersson, H. Nakatsuji, M. Caricato, X. Li, H. P. Hratchian, 
 A. F. Izmaylov, J. Bloino, G. Zheng, J. L. Sonnenberg, M. Hada, 
 M. Ehara, K. Toyota, R. Fukuda, J. Hasegawa, M. Ishida, T. Nakajima, 
 Y. Honda, O. Kitao, H. Nakai, T. Vreven, J. A. Montgomery, Jr., 
 J. E. Peralta, F. Ogliaro, M. Bearpark, J. J. Heyd, E. Brothers, 
 K. N. Kudin, V. N. Staroverov, R. Kobayashi, J. Normand, 
 K. Raghavachari, A. Rendell, J. C. Burant, S. S. Iyengar, J. Tomasi, 
 M. Cossi, N. Rega, J. M. Millam, M. Klene, J. E. Knox, J. B. Cross, 
 V. Bakken, C. Adamo, J. Jaramillo, R. Gomperts, R. E. Stratmann, 
 O. Yazyev, A. J. Austin, R. Cammi, C. Pomelli, J. W. Ochterski, 
 R. L. Martin, K. Morokuma, V. G. Zakrzewski, G. A. Voth, 
 P. Salvador, J. J. Dannenberg, S. Dapprich, A. D. Daniels, 
 O. Farkas, J. B. Foresman, J. V. Ortiz, J. Cioslowski, 
 and D. J. Fox, Gaussian, Inc., Wallingford CT, 2009.
 
 ******************************************
 Gaussian 09:  EM64L-G09RevA.01  8-May-2009
                18-Sep-2015 
 ******************************************
 %mem=3GB
 %nprocshared=2
 Will use up to    2 processors via shared memory.
 -----------------------------------------
 #p B3LYP/6-31G(d) opt=tight int=ultrafine
 -----------------------------------------
 1/7=10,14=-1,18=20,19=15,26=3,38=1/1,3;
 2/9=110,12=2,17=6,18=5,40=1/2;
 3/5=1,6=6,7=1,11=2,16=1,25=1,30=1,71=1,74=-5,75=-5/1,2,3;
 4//1;
 5/5=2,38=5/2;
 6/7=2,8=2,9=2,10=2,28=1/1;
 7//1,2,3,16;
 1/7=10,14=-1,18=20,19=15/3(2);
 2/9=110/2;
 99//99;
 2/9=110/2;
 3/5=1,6=6,7=1,11=2,16=1,25=1,30=1,71=1,74=-5,75=-5/1,2,3;
 4/5=5,16=3/1;
 5/5=2,38=5/2;
 7//1,2,3,16;
 1/7=10,14=-1,18=20,19=15/3(-5);
 2/9=110/2;
 6/7=2,8=2,9=2,10=2,19=2,28=1/1;
 99/9=1/99;
 Leave Link    1 at Fri Sep 18 13:23:31 2015, MaxMem=  402653184 cpu:       0.1
 (Enter /share/apps/g09/l101.exe)
 ---------------------------------------------
 using B3LYP/6-31G(d) to do opt and freq calc.
 ---------------------------------------------
 Symbolic Z-matrix:
 Charge =  0 Multiplicity = 1
 C                    -2.1838   -0.94046  -0.20087 
 H                    -2.0402   -1.30071  -1.22572 
 H                    -2.7992   -0.03507  -0.2555 
 H                    -2.76304  -1.69905   0.33683 
 C                    -0.85023  -0.67236   0.49265 
 H                    -1.02711  -0.35048   1.53642 
 H                    -0.27792  -1.6191    0.56408 
 C                     0.00066   0.38427  -0.24431 
 H                     0.00046   0.14175  -1.3353 
 C                     1.461     0.36019   0.26051 
 H                     1.47775   0.41094   1.36578 
 H                     1.98468   1.27246  -0.08667 
 C                     2.22675  -0.8717   -0.21614 
 H                     2.28627  -0.91106  -1.30971 
 H                     3.25194  -0.87418   0.16987 
 H                     1.74674  -1.79956   0.11778 
 C                    -0.58845   1.78981  -0.06277 
 H                    -1.62975   1.82765  -0.4015 
 H                    -0.57621   2.10229   0.98657 
 H                    -0.02997   2.53564  -0.63733 
 
 NAtoms=     20 NQM=     20 NQMF=      0 NMic=      0 NMicF=      0 NTot=     20.
                    Isotopes and Nuclear Properties:
 (Nuclear quadrupole moments (NQMom) in fm**2, nuclear magnetic moments (NMagM)
  in nuclear magnetons)

  Atom         1           2           3           4           5           6           7           8           9          10
 IAtWgt=          12           1           1           1          12           1           1          12           1          12
 AtmWgt=  12.0000000   1.0078250   1.0078250   1.0078250  12.0000000   1.0078250   1.0078250  12.0000000   1.0078250  12.0000000
 NucSpn=           0           1           1           1           0           1           1           0           1           0
 AtZEff=   0.0000000   0.0000000   0.0000000   0.0000000   0.0000000   0.0000000   0.0000000   0.0000000   0.0000000   0.0000000
 NQMom=    0.0000000   0.0000000   0.0000000   0.0000000   0.0000000   0.0000000   0.0000000   0.0000000   0.0000000   0.0000000
 NMagM=    0.0000000   2.7928460   2.7928460   2.7928460   0.0000000   2.7928460   2.7928460   0.0000000   2.7928460   0.0000000

  Atom        11          12          13          14          15          16          17          18          19          20
 IAtWgt=           1           1          12           1           1           1          12           1           1           1
 AtmWgt=   1.0078250   1.0078250  12.0000000   1.0078250   1.0078250   1.0078250  12.0000000   1.0078250   1.0078250   1.0078250
 NucSpn=           1           1           0           1           1           1           0           1           1           1
 AtZEff=   0.0000000   0.0000000   0.0000000   0.0000000   0.0000000   0.0000000   0.0000000   0.0000000   0.0000000   0.0000000
 NQMom=    0.0000000   0.0000000   0.0000000   0.0000000   0.0000000   0.0000000   0.0000000   0.0000000   0.0000000   0.0000000
 NMagM=    2.7928460   2.7928460   0.0000000   2.7928460   2.7928460   2.7928460   0.0000000   2.7928460   2.7928460   2.7928460
 Leave Link  101 at Fri Sep 18 13:23:31 2015, MaxMem=  402653184 cpu:       0.2
 (Enter /share/apps/g09/l103.exe)

 GradGradGradGradGradGradGradGradGradGradGradGradGradGradGradGradGradGrad
 Berny optimization.
 Initialization pass.
                           ----------------------------
                           !    Initial Parameters    !
                           ! (Angstroms and Degrees)  !
 --------------------------                            --------------------------
 ! Name  Definition              Value          Derivative Info.                !
 --------------------------------------------------------------------------------
 ! R1    R(1,2)                  1.0958         estimate D2E/DX2                !
 ! R2    R(1,3)                  1.0961         estimate D2E/DX2                !
 ! R3    R(1,4)                  1.0955         estimate D2E/DX2                !
 ! R4    R(1,5)                  1.5268         estimate D2E/DX2                !
 ! R5    R(5,6)                  1.1065         estimate D2E/DX2                !
 ! R6    R(5,7)                  1.1086         estimate D2E/DX2                !
 ! R7    R(5,8)                  1.5439         estimate D2E/DX2                !
 ! R8    R(8,9)                  1.1176         estimate D2E/DX2                !
 ! R9    R(8,10)                 1.5453         estimate D2E/DX2                !
 ! R10   R(8,17)                 1.5348         estimate D2E/DX2                !
 ! R11   R(10,11)                1.1066         estimate D2E/DX2                !
 ! R12   R(10,12)                1.1077         estimate D2E/DX2                !
 ! R13   R(10,13)                1.5268         estimate D2E/DX2                !
 ! R14   R(13,14)                1.0959         estimate D2E/DX2                !
 ! R15   R(13,15)                1.0955         estimate D2E/DX2                !
 ! R16   R(13,16)                1.0967         estimate D2E/DX2                !
 ! R17   R(17,18)                1.0957         estimate D2E/DX2                !
 ! R18   R(17,19)                1.0949         estimate D2E/DX2                !
 ! R19   R(17,20)                1.0947         estimate D2E/DX2                !
 ! A1    A(2,1,3)              107.3691         estimate D2E/DX2                !
 ! A2    A(2,1,4)              107.4989         estimate D2E/DX2                !
 ! A3    A(2,1,5)              111.5978         estimate D2E/DX2                !
 ! A4    A(3,1,4)              107.4325         estimate D2E/DX2                !
 ! A5    A(3,1,5)              111.591          estimate D2E/DX2                !
 ! A6    A(4,1,5)              111.1288         estimate D2E/DX2                !
 ! A7    A(1,5,6)              109.8725         estimate D2E/DX2                !
 ! A8    A(1,5,7)              109.2819         estimate D2E/DX2                !
 ! A9    A(1,5,8)              112.6269         estimate D2E/DX2                !
 ! A10   A(6,5,7)              105.6747         estimate D2E/DX2                !
 ! A11   A(6,5,8)              109.8333         estimate D2E/DX2                !
 ! A12   A(7,5,8)              109.3119         estimate D2E/DX2                !
 ! A13   A(5,8,9)              108.5032         estimate D2E/DX2                !
 ! A14   A(5,8,10)             110.7463         estimate D2E/DX2                !
 ! A15   A(5,8,17)             111.0234         estimate D2E/DX2                !
 ! A16   A(9,8,10)             108.4019         estimate D2E/DX2                !
 ! A17   A(9,8,17)             108.3075         estimate D2E/DX2                !
 ! A18   A(10,8,17)            109.7773         estimate D2E/DX2                !
 ! A19   A(8,10,11)            109.87           estimate D2E/DX2                !
 ! A20   A(8,10,12)            109.3627         estimate D2E/DX2                !
 ! A21   A(8,10,13)            112.6158         estimate D2E/DX2                !
 ! A22   A(11,10,12)           105.553          estimate D2E/DX2                !
 ! A23   A(11,10,13)           109.9519         estimate D2E/DX2                !
 ! A24   A(12,10,13)           109.2402         estimate D2E/DX2                !
 ! A25   A(10,13,14)           111.5764         estimate D2E/DX2                !
 ! A26   A(10,13,15)           111.1732         estimate D2E/DX2                !
 ! A27   A(10,13,16)           111.5946         estimate D2E/DX2                !
 ! A28   A(14,13,15)           107.5012         estimate D2E/DX2                !
 ! A29   A(14,13,16)           107.2898         estimate D2E/DX2                !
 ! A30   A(15,13,16)           107.4814         estimate D2E/DX2                !
 ! A31   A(8,17,18)            111.0918         estimate D2E/DX2                !
 ! A32   A(8,17,19)            111.7415         estimate D2E/DX2                !
 ! A33   A(8,17,20)            111.4717         estimate D2E/DX2                !
 ! A34   A(18,17,19)           107.2805         estimate D2E/DX2                !
 ! A35   A(18,17,20)           107.4016         estimate D2E/DX2                !
 ! A36   A(19,17,20)           107.6299         estimate D2E/DX2                !
 ! D1    D(2,1,5,6)           -177.6897         estimate D2E/DX2                !
 ! D2    D(2,1,5,7)            -62.1711         estimate D2E/DX2                !
 ! D3    D(2,1,5,8)             59.5239         estimate D2E/DX2                !
 ! D4    D(3,1,5,6)             62.1801         estimate D2E/DX2                !
 ! D5    D(3,1,5,7)            177.6987         estimate D2E/DX2                !
 ! D6    D(3,1,5,8)            -60.6063         estimate D2E/DX2                !
 ! D7    D(4,1,5,6)            -57.7104         estimate D2E/DX2                !
 ! D8    D(4,1,5,7)             57.8083         estimate D2E/DX2                !
 ! D9    D(4,1,5,8)            179.5032         estimate D2E/DX2                !
 ! D10   D(1,5,8,9)            -46.3895         estimate D2E/DX2                !
 ! D11   D(1,5,8,10)          -165.2537         estimate D2E/DX2                !
 ! D12   D(1,5,8,17)            72.5235         estimate D2E/DX2                !
 ! D13   D(6,5,8,9)           -169.1979         estimate D2E/DX2                !
 ! D14   D(6,5,8,10)            71.9379         estimate D2E/DX2                !
 ! D15   D(6,5,8,17)           -50.2848         estimate D2E/DX2                !
 ! D16   D(7,5,8,9)             75.2884         estimate D2E/DX2                !
 ! D17   D(7,5,8,10)           -43.5758         estimate D2E/DX2                !
 ! D18   D(7,5,8,17)          -165.7985         estimate D2E/DX2                !
 ! D19   D(5,8,10,11)          -50.6662         estimate D2E/DX2                !
 ! D20   D(5,8,10,12)         -166.0831         estimate D2E/DX2                !
 ! D21   D(5,8,10,13)           72.2635         estimate D2E/DX2                !
 ! D22   D(9,8,10,11)         -169.5917         estimate D2E/DX2                !
 ! D23   D(9,8,10,12)           74.9915         estimate D2E/DX2                !
 ! D24   D(9,8,10,13)          -46.6619         estimate D2E/DX2                !
 ! D25   D(17,8,10,11)          72.2816         estimate D2E/DX2                !
 ! D26   D(17,8,10,12)         -43.1353         estimate D2E/DX2                !
 ! D27   D(17,8,10,13)        -164.7887         estimate D2E/DX2                !
 ! D28   D(5,8,17,18)          -56.4213         estimate D2E/DX2                !
 ! D29   D(5,8,17,19)           63.3525         estimate D2E/DX2                !
 ! D30   D(5,8,17,20)         -176.1676         estimate D2E/DX2                !
 ! D31   D(9,8,17,18)           62.6093         estimate D2E/DX2                !
 ! D32   D(9,8,17,19)         -177.6169         estimate D2E/DX2                !
 ! D33   D(9,8,17,20)          -57.1369         estimate D2E/DX2                !
 ! D34   D(10,8,17,18)        -179.2055         estimate D2E/DX2                !
 ! D35   D(10,8,17,19)         -59.4317         estimate D2E/DX2                !
 ! D36   D(10,8,17,20)          61.0483         estimate D2E/DX2                !
 ! D37   D(8,10,13,14)          61.0498         estimate D2E/DX2                !
 ! D38   D(8,10,13,15)        -178.9522         estimate D2E/DX2                !
 ! D39   D(8,10,13,16)         -58.967          estimate D2E/DX2                !
 ! D40   D(11,10,13,14)       -176.0663         estimate D2E/DX2                !
 ! D41   D(11,10,13,15)        -56.0682         estimate D2E/DX2                !
 ! D42   D(11,10,13,16)         63.917          estimate D2E/DX2                !
 ! D43   D(12,10,13,14)        -60.6731         estimate D2E/DX2                !
 ! D44   D(12,10,13,15)         59.3249         estimate D2E/DX2                !
 ! D45   D(12,10,13,16)        179.3102         estimate D2E/DX2                !
 --------------------------------------------------------------------------------
 Trust Radius=3.00D-01 FncErr=1.00D-07 GrdErr=1.00D-06
 Number of steps in this run= 110 maximum allowed number of steps= 120.
 GradGradGradGradGradGradGradGradGradGradGradGradGradGradGradGradGradGrad

 Leave Link  103 at Fri Sep 18 13:23:31 2015, MaxMem=  402653184 cpu:       0.0
 (Enter /share/apps/g09/l202.exe)
                          Input orientation:                          
 ---------------------------------------------------------------------
 Center     Atomic      Atomic             Coordinates (Angstroms)
 Number     Number       Type             X           Y           Z
 ---------------------------------------------------------------------
      1          6           0       -2.183800   -0.940457   -0.200870
      2          1           0       -2.040203   -1.300711   -1.225716
      3          1           0       -2.799204   -0.035067   -0.255500
      4          1           0       -2.763044   -1.699053    0.336829
      5          6           0       -0.850232   -0.672361    0.492650
      6          1           0       -1.027109   -0.350478    1.536421
      7          1           0       -0.277923   -1.619102    0.564081
      8          6           0        0.000664    0.384269   -0.244308
      9          1           0        0.000463    0.141753   -1.335300
     10          6           0        1.460995    0.360190    0.260506
     11          1           0        1.477750    0.410936    1.365780
     12          1           0        1.984679    1.272458   -0.086672
     13          6           0        2.226753   -0.871700   -0.216144
     14          1           0        2.286266   -0.911062   -1.309705
     15          1           0        3.251937   -0.874177    0.169868
     16          1           0        1.746740   -1.799560    0.117780
     17          6           0       -0.588452    1.789806   -0.062767
     18          1           0       -1.629746    1.827653   -0.401500
     19          1           0       -0.576210    2.102287    0.986566
     20          1           0       -0.029966    2.535640   -0.637333
 ---------------------------------------------------------------------
                    Distance matrix (angstroms):
                    1          2          3          4          5
     1  C    0.000000
     2  H    1.095770   0.000000
     3  H    1.096101   1.766142   0.000000
     4  H    1.095496   1.767123   1.766638   0.000000
     5  C    1.526843   2.182576   2.182742   2.176517   0.000000
     6  H    2.168914   3.091715   2.539840   2.504226   1.106504
     7  H    2.162886   2.531872   3.088323   2.496770   1.108584
     8  C    2.555126   2.822668   2.831118   3.509421   1.543891
     9  H    2.688701   2.501405   3.005889   3.717735   2.174365
    10  C    3.897317   4.150402   4.309499   4.699874   2.542012
    11  H    4.205663   4.692716   4.595629   4.847177   2.712082
    12  H    4.720832   4.911038   4.962223   5.616948   3.486353
    13  C    4.411115   4.405701   5.095267   5.088061   3.163852
    14  H    4.605635   4.344792   5.266946   5.369128   3.625339
    15  H    5.448768   5.489657   6.123835   6.073573   4.119795
    16  H    4.035931   4.049045   4.890642   4.516219   2.855761
    17  C    3.165208   3.607122   2.873105   4.130456   2.537574
    18  H    2.830134   3.261053   2.204240   3.777188   2.767168
    19  H    3.640418   4.314842   3.324562   4.433349   2.831557
    20  H    4.112512   4.370908   3.797764   5.133355   3.498710
                    6          7          8          9         10
     6  H    0.000000
     7  H    1.765257   0.000000
     8  C    2.183384   2.178210   0.000000
     9  H    3.089495   2.604949   1.117621   0.000000
    10  C    2.885077   2.652092   1.545310   2.174273   0.000000
    11  H    2.623583   2.801100   2.185149   3.090416   1.106565
    12  H    3.786716   3.728802   2.179460   2.602821   1.107705
    13  C    3.732395   2.727776   2.556115   2.689975   1.526805
    14  H    4.403764   3.253838   2.834948   2.516738   2.182365
    15  H    4.522385   3.629081   3.510841   3.724208   2.177005
    16  H    3.436076   2.081108   2.819397   2.988247   2.183241
    17  C    2.707515   3.479945   1.534780   2.163848   2.519631
    18  H    2.977073   3.826211   2.183187   2.524247   3.484879
    19  H    2.553763   3.757154   2.190758   3.093106   2.777097
    20  H    3.748223   4.332062   2.187191   2.493748   2.785976
                   11         12         13         14         15
    11  H    0.000000
    12  H    1.763183   0.000000
    13  C    2.169941   2.161661   0.000000
    14  H    3.091860   2.520818   1.095886   0.000000
    15  H    2.495889   2.505952   1.095451   1.767206   0.000000
    16  H    2.552675   3.087995   1.096741   1.765851   1.767672
    17  C    2.865523   2.624733   3.877179   4.136852   4.679691
    18  H    3.845373   3.670344   4.710992   4.864211   5.608670
    19  H    2.687605   2.898035   4.260013   4.748358   4.917422
    20  H    3.286341   2.440830   4.108546   4.206753   4.800970
                   16         17         18         19         20
    16  H    0.000000
    17  C    4.285938   0.000000
    18  H    4.982668   1.095658   0.000000
    19  H    4.623342   1.094940   1.764111   0.000000
    20  H    4.745613   1.094669   1.765265   1.767265   0.000000
 Stoichiometry    C6H14
 Framework group  C1[X(C6H14)]
 Deg. of freedom    54
 Full point group                 C1      NOp   1
 Largest Abelian subgroup         C1      NOp   1
 Largest concise Abelian subgroup C1      NOp   1
                         Standard orientation:                         
 ---------------------------------------------------------------------
 Center     Atomic      Atomic             Coordinates (Angstroms)
 Number     Number       Type             X           Y           Z
 ---------------------------------------------------------------------
      1          6           0       -2.183800   -0.940456   -0.200870
      2          1           0       -2.040203   -1.300710   -1.225716
      3          1           0       -2.799204   -0.035066   -0.255500
      4          1           0       -2.763044   -1.699052    0.336829
      5          6           0       -0.850232   -0.672361    0.492650
      6          1           0       -1.027109   -0.350478    1.536421
      7          1           0       -0.277923   -1.619102    0.564081
      8          6           0        0.000664    0.384269   -0.244308
      9          1           0        0.000463    0.141753   -1.335300
     10          6           0        1.460995    0.360190    0.260506
     11          1           0        1.477750    0.410936    1.365780
     12          1           0        1.984679    1.272457   -0.086672
     13          6           0        2.226753   -0.871701   -0.216144
     14          1           0        2.286266   -0.911063   -1.309705
     15          1           0        3.251937   -0.874178    0.169868
     16          1           0        1.746739   -1.799561    0.117780
     17          6           0       -0.588451    1.789806   -0.062767
     18          1           0       -1.629745    1.827654   -0.401500
     19          1           0       -0.576209    2.102287    0.986566
     20          1           0       -0.029965    2.535640   -0.637333
 ---------------------------------------------------------------------
 Rotational constants (GHZ):      4.5030902      2.2844467      1.6869339
 Leave Link  202 at Fri Sep 18 13:23:31 2015, MaxMem=  402653184 cpu:       0.0
 (Enter /share/apps/g09/l301.exe)
 Standard basis: 6-31G(d) (6D, 7F)
 Ernie: Thresh=  0.10000D-02 Tol=  0.10000D-05 Strict=F.
 There are   118 symmetry adapted basis functions of A   symmetry.
 Integral buffers will be    131072 words long.
 Raffenetti 2 integral format.
 Two-electron integral symmetry is turned on.
   118 basis functions,   224 primitive gaussians,   118 cartesian basis functions
    25 alpha electrons       25 beta electrons
       nuclear repulsion energy       256.8852940892 Hartrees.
 IExCor=  402 DFT=T Ex+Corr=B3LYP ExCW=0 ScaHFX=  0.200000
 ScaDFX=  0.800000  0.720000  1.000000  0.810000 ScalE2=  1.000000  1.000000
 IRadAn=      5 IRanWt=     -1 IRanGd=            0 ICorTp=0
 NAtoms=   20 NActive=   20 NUniq=   20 SFac= 7.50D-01 NAtFMM=   80 NAOKFM=F Big=F
 Leave Link  301 at Fri Sep 18 13:23:31 2015, MaxMem=  402653184 cpu:       0.1
 (Enter /share/apps/g09/l302.exe)
 NPDir=0 NMtPBC=     1 NCelOv=     1 NCel=       1 NClECP=     1 NCelD=      1
         NCelK=      1 NCelE2=     1 NClLst=     1 CellRange=     0.0.
 One-electron integrals computed using PRISM.
 NBasis=   118 RedAO= T  NBF=   118
 NBsUse=   118 1.00D-06 NBFU=   118
 Precomputing XC quadrature grid using
 IXCGrd= 2 IRadAn=           5 IRanWt=          -1 IRanGd=           0 AccXCQ= 1.00D-10.
 NRdTot=    1644 NPtTot=      440330 NUsed=      452111 NTot=      452143
 NSgBfM=   118   118   118   118   118 NAtAll=    20    20.
 Leave Link  302 at Fri Sep 18 13:23:32 2015, MaxMem=  402653184 cpu:       1.3
 (Enter /share/apps/g09/l303.exe)
 DipDrv:  MaxL=1.
 Leave Link  303 at Fri Sep 18 13:23:32 2015, MaxMem=  402653184 cpu:       0.0
 (Enter /share/apps/g09/l401.exe)
 Harris functional with IExCor=  402 diagonalized for initial guess.
 ExpMin= 1.61D-01 ExpMax= 3.05D+03 ExpMxC= 4.57D+02 IAcc=3 IRadAn=         5 AccDes= 0.00D+00
 HarFok:  IExCor=  402 AccDes= 0.00D+00 IRadAn=         5 IDoV= 1
 ScaDFX=  1.000000  1.000000  1.000000  1.000000
 FoFCou: FMM=F IPFlag=           0 FMFlag=      100000 FMFlg1=           0
         NFxFlg=           0 DoJE=T BraDBF=F KetDBF=T FulRan=T
         Omega=  0.000000  0.000000  1.000000  0.000000  0.000000 ICntrl=     500 IOpCl=  0
         NMat0=    1 NMatS0=    1 NMatT0=    0 NMatD0=    1 NMtDS0=    0 NMtDT0=    0
         I1Cent=           4 NGrid=           0.
 Petite list used in FoFCou.
 Harris En= -237.177247902108    
 Initial guess orbital symmetries:
       Occupied  (A) (A) (A) (A) (A) (A) (A) (A) (A) (A) (A) (A)
                 (A) (A) (A) (A) (A) (A) (A) (A) (A) (A) (A) (A)
                 (A)
       Virtual   (A) (A) (A) (A) (A) (A) (A) (A) (A) (A) (A) (A)
                 (A) (A) (A) (A) (A) (A) (A) (A) (A) (A) (A) (A)
                 (A) (A) (A) (A) (A) (A) (A) (A) (A) (A) (A) (A)
                 (A) (A) (A) (A) (A) (A) (A) (A) (A) (A) (A) (A)
                 (A) (A) (A) (A) (A) (A) (A) (A) (A) (A) (A) (A)
                 (A) (A) (A) (A) (A) (A) (A) (A) (A) (A) (A) (A)
                 (A) (A) (A) (A) (A) (A) (A) (A) (A) (A) (A) (A)
                 (A) (A) (A) (A) (A) (A) (A) (A) (A)
 The electronic state of the initial guess is 1-A.
 Leave Link  401 at Fri Sep 18 13:23:37 2015, MaxMem=  402653184 cpu:      10.3
 (Enter /share/apps/g09/l502.exe)
 Closed shell SCF:
 Requested convergence on RMS density matrix=1.00D-08 within 128 cycles.
 Requested convergence on MAX density matrix=1.00D-06.
 Requested convergence on             energy=1.00D-06.
 No special actions if energy rises.
 Using DIIS extrapolation, IDIIS=  1040.
 Integral symmetry usage will be decided dynamically.
       451918 words used for storage of precomputed grid.
 Keep R1 ints in memory in canonical form, NReq=26105973.
 IEnd=      513462 IEndB=      513462 NGot=   402653184 MDV=   377519646
 LenX=   377519646 LenY=   377505281
 Symmetry not used in FoFDir.
 MinBra= 0 MaxBra= 2 Meth= 1.
 IRaf=       0 NMat=   1 IRICut=       1 DoRegI=T DoRafI=F ISym2E= 0 JSym2E=0.
 Integral accuracy reduced to 1.0D-05 until final iterations.

 Cycle   1  Pass 0  IDiag  1:
 E= -236.790476548336    
 DIIS: error= 4.97D-02 at cycle   1 NSaved=   1.
 NSaved= 1 IEnMin= 1 EnMin= -236.790476548336     IErMin= 1 ErrMin= 4.97D-02
 ErrMax= 4.97D-02 EMaxC= 1.00D-01 BMatC= 2.58D-01 BMatP= 2.58D-01
 IDIUse=3 WtCom= 5.03D-01 WtEn= 4.97D-01
 Coeff-Com:  0.100D+01
 Coeff-En:   0.100D+01
 Coeff:      0.100D+01
 Gap=     0.349 Goal=   None    Shift=    0.000
 GapD=    0.349 DampG=1.000 DampE=0.500 DampFc=0.5000 IDamp=-1.
 Damping current iteration by 5.00D-01
 RMSDP=1.02D-02 MaxDP=1.46D-01              OVMax= 1.86D-01

 Cycle   2  Pass 0  IDiag  1:
 E= -236.918436556511     Delta-E=       -0.127960008175 Rises=F Damp=T
 DIIS: error= 9.02D-03 at cycle   2 NSaved=   2.
 NSaved= 2 IEnMin= 2 EnMin= -236.918436556511     IErMin= 2 ErrMin= 9.02D-03
 ErrMax= 9.02D-03 EMaxC= 1.00D-01 BMatC= 9.88D-03 BMatP= 2.58D-01
 IDIUse=3 WtCom= 9.10D-01 WtEn= 9.02D-02
 Coeff-Com:  0.858D-01 0.914D+00
 Coeff-En:   0.142D+00 0.858D+00
 Coeff:      0.909D-01 0.909D+00
 Gap=     0.400 Goal=   None    Shift=    0.000
 RMSDP=1.67D-03 MaxDP=2.42D-02 DE=-1.28D-01 OVMax= 1.02D-01

 Cycle   3  Pass 0  IDiag  1:
 E= -237.080578903872     Delta-E=       -0.162142347361 Rises=F Damp=F
 DIIS: error= 2.24D-03 at cycle   3 NSaved=   3.
 NSaved= 3 IEnMin= 3 EnMin= -237.080578903872     IErMin= 3 ErrMin= 2.24D-03
 ErrMax= 2.24D-03 EMaxC= 1.00D-01 BMatC= 1.05D-03 BMatP= 9.88D-03
 IDIUse=3 WtCom= 9.78D-01 WtEn= 2.24D-02
 Coeff-Com:  0.924D-02 0.187D+00 0.804D+00
 Coeff-En:   0.000D+00 0.000D+00 0.100D+01
 Coeff:      0.903D-02 0.183D+00 0.808D+00
 Gap=     0.388 Goal=   None    Shift=    0.000
 RMSDP=5.22D-04 MaxDP=1.12D-02 DE=-1.62D-01 OVMax= 9.22D-03

 Cycle   4  Pass 0  IDiag  1:
 E= -237.081104062893     Delta-E=       -0.000525159021 Rises=F Damp=F
 DIIS: error= 1.71D-03 at cycle   4 NSaved=   4.
 NSaved= 4 IEnMin= 4 EnMin= -237.081104062893     IErMin= 4 ErrMin= 1.71D-03
 ErrMax= 1.71D-03 EMaxC= 1.00D-01 BMatC= 5.49D-04 BMatP= 1.05D-03
 IDIUse=3 WtCom= 9.83D-01 WtEn= 1.71D-02
 Coeff-Com:  0.191D-03 0.306D-01 0.421D+00 0.548D+00
 Coeff-En:   0.000D+00 0.000D+00 0.332D+00 0.668D+00
 Coeff:      0.187D-03 0.301D-01 0.420D+00 0.550D+00
 Gap=     0.391 Goal=   None    Shift=    0.000
 RMSDP=2.12D-04 MaxDP=4.42D-03 DE=-5.25D-04 OVMax= 4.53D-03

 Cycle   5  Pass 0  IDiag  1:
 E= -237.081630450978     Delta-E=       -0.000526388085 Rises=F Damp=F
 DIIS: error= 1.81D-04 at cycle   5 NSaved=   5.
 NSaved= 5 IEnMin= 5 EnMin= -237.081630450978     IErMin= 5 ErrMin= 1.81D-04
 ErrMax= 1.81D-04 EMaxC= 1.00D-01 BMatC= 1.20D-05 BMatP= 5.49D-04
 IDIUse=3 WtCom= 9.98D-01 WtEn= 1.81D-03
 Coeff-Com:  0.180D-03-0.183D-02 0.969D-01 0.196D+00 0.709D+00
 Coeff-En:   0.000D+00 0.000D+00 0.000D+00 0.000D+00 0.100D+01
 Coeff:      0.180D-03-0.183D-02 0.967D-01 0.196D+00 0.709D+00
 Gap=     0.391 Goal=   None    Shift=    0.000
 RMSDP=2.75D-05 MaxDP=6.79D-04 DE=-5.26D-04 OVMax= 6.58D-04

 Cycle   6  Pass 0  IDiag  1:
 E= -237.081641645325     Delta-E=       -0.000011194346 Rises=F Damp=F
 DIIS: error= 1.91D-05 at cycle   6 NSaved=   6.
 NSaved= 6 IEnMin= 6 EnMin= -237.081641645325     IErMin= 6 ErrMin= 1.91D-05
 ErrMax= 1.91D-05 EMaxC= 1.00D-01 BMatC= 1.27D-07 BMatP= 1.20D-05
 IDIUse=1 WtCom= 1.00D+00 WtEn= 0.00D+00
 Coeff-Com:  0.150D-03-0.101D-02 0.249D-01 0.536D-01 0.219D+00 0.703D+00
 Coeff:      0.150D-03-0.101D-02 0.249D-01 0.536D-01 0.219D+00 0.703D+00
 Gap=     0.391 Goal=   None    Shift=    0.000
 RMSDP=4.51D-06 MaxDP=7.93D-05 DE=-1.12D-05 OVMax= 8.98D-05

 Initial convergence to 1.0D-05 achieved.  Increase integral accuracy.
 Cycle   7  Pass 1  IDiag  1:
 E= -237.081632200029     Delta-E=        0.000009445295 Rises=F Damp=F
 DIIS: error= 1.06D-05 at cycle   1 NSaved=   1.
 NSaved= 1 IEnMin= 1 EnMin= -237.081632200029     IErMin= 1 ErrMin= 1.06D-05
 ErrMax= 1.06D-05 EMaxC= 1.00D-01 BMatC= 2.39D-08 BMatP= 2.39D-08
 IDIUse=1 WtCom= 1.00D+00 WtEn= 0.00D+00
 Coeff-Com:  0.100D+01
 Coeff:      0.100D+01
 Gap=     0.391 Goal=   None    Shift=    0.000
 RMSDP=4.51D-06 MaxDP=7.93D-05 DE= 9.45D-06 OVMax= 6.12D-05

 Cycle   8  Pass 1  IDiag  1:
 E= -237.081632191789     Delta-E=        0.000000008241 Rises=F Damp=F
 DIIS: error= 1.41D-05 at cycle   2 NSaved=   2.
 NSaved= 2 IEnMin= 1 EnMin= -237.081632200029     IErMin= 1 ErrMin= 1.06D-05
 ErrMax= 1.41D-05 EMaxC= 1.00D-01 BMatC= 3.35D-08 BMatP= 2.39D-08
 IDIUse=1 WtCom= 1.00D+00 WtEn= 0.00D+00
 Coeff-Com:  0.544D+00 0.456D+00
 Coeff:      0.544D+00 0.456D+00
 Gap=     0.391 Goal=   None    Shift=    0.000
 RMSDP=1.45D-06 MaxDP=2.85D-05 DE= 8.24D-09 OVMax= 3.38D-05

 Cycle   9  Pass 1  IDiag  1:
 E= -237.081632225032     Delta-E=       -0.000000033244 Rises=F Damp=F
 DIIS: error= 5.41D-07 at cycle   3 NSaved=   3.
 NSaved= 3 IEnMin= 3 EnMin= -237.081632225032     IErMin= 3 ErrMin= 5.41D-07
 ErrMax= 5.41D-07 EMaxC= 1.00D-01 BMatC= 7.59D-11 BMatP= 2.39D-08
 IDIUse=1 WtCom= 1.00D+00 WtEn= 0.00D+00
 Coeff-Com:  0.157D-01 0.470D-01 0.937D+00
 Coeff:      0.157D-01 0.470D-01 0.937D+00
 Gap=     0.391 Goal=   None    Shift=    0.000
 RMSDP=1.19D-07 MaxDP=1.65D-06 DE=-3.32D-08 OVMax= 2.53D-06

 Cycle  10  Pass 1  IDiag  1:
 E= -237.081632225096     Delta-E=       -0.000000000063 Rises=F Damp=F
 DIIS: error= 2.35D-07 at cycle   4 NSaved=   4.
 NSaved= 4 IEnMin= 4 EnMin= -237.081632225096     IErMin= 4 ErrMin= 2.35D-07
 ErrMax= 2.35D-07 EMaxC= 1.00D-01 BMatC= 1.68D-11 BMatP= 7.59D-11
 IDIUse=1 WtCom= 1.00D+00 WtEn= 0.00D+00
 Coeff-Com: -0.107D-01 0.597D-02 0.408D+00 0.597D+00
 Coeff:     -0.107D-01 0.597D-02 0.408D+00 0.597D+00
 Gap=     0.391 Goal=   None    Shift=    0.000
 RMSDP=4.00D-08 MaxDP=8.55D-07 DE=-6.34D-11 OVMax= 8.42D-07

 Cycle  11  Pass 1  IDiag  1:
 E= -237.081632225113     Delta-E=       -0.000000000017 Rises=F Damp=F
 DIIS: error= 6.60D-08 at cycle   5 NSaved=   5.
 NSaved= 5 IEnMin= 5 EnMin= -237.081632225113     IErMin= 5 ErrMin= 6.60D-08
 ErrMax= 6.60D-08 EMaxC= 1.00D-01 BMatC= 9.90D-13 BMatP= 1.68D-11
 IDIUse=1 WtCom= 1.00D+00 WtEn= 0.00D+00
 Coeff-Com: -0.556D-02 0.720D-03 0.144D+00 0.279D+00 0.583D+00
 Coeff:     -0.556D-02 0.720D-03 0.144D+00 0.279D+00 0.583D+00
 Gap=     0.391 Goal=   None    Shift=    0.000
 RMSDP=1.03D-08 MaxDP=1.65D-07 DE=-1.71D-11 OVMax= 2.02D-07

 Cycle  12  Pass 1  IDiag  1:
 E= -237.081632225113     Delta-E=       -0.000000000001 Rises=F Damp=F
 DIIS: error= 9.68D-09 at cycle   6 NSaved=   6.
 NSaved= 6 IEnMin= 6 EnMin= -237.081632225113     IErMin= 6 ErrMin= 9.68D-09
 ErrMax= 9.68D-09 EMaxC= 1.00D-01 BMatC= 1.93D-14 BMatP= 9.90D-13
 IDIUse=1 WtCom= 1.00D+00 WtEn= 0.00D+00
 Coeff-Com: -0.134D-02-0.544D-04 0.267D-01 0.580D-01 0.174D+00 0.743D+00
 Coeff:     -0.134D-02-0.544D-04 0.267D-01 0.580D-01 0.174D+00 0.743D+00
 Gap=     0.391 Goal=   None    Shift=    0.000
 RMSDP=1.83D-09 MaxDP=3.64D-08 DE=-6.82D-13 OVMax= 5.09D-08

 SCF Done:  E(RB3LYP) =  -237.081632225     A.U. after   12 cycles
             Convg  =    0.1826D-08             -V/T =  2.0105
 KE= 2.346121625875D+02 PE=-1.060680974442D+03 EE= 3.321018855400D+02
 Leave Link  502 at Fri Sep 18 13:24:33 2015, MaxMem=  402653184 cpu:     112.1
 (Enter /share/apps/g09/l601.exe)
 Copying SCF densities to generalized density rwf, IOpCl= 0 IROHF=0.

 **********************************************************************

            Population analysis using the SCF density.

 **********************************************************************

 Orbital symmetries:
       Occupied  (A) (A) (A) (A) (A) (A) (A) (A) (A) (A) (A) (A)
                 (A) (A) (A) (A) (A) (A) (A) (A) (A) (A) (A) (A)
                 (A)
       Virtual   (A) (A) (A) (A) (A) (A) (A) (A) (A) (A) (A) (A)
                 (A) (A) (A) (A) (A) (A) (A) (A) (A) (A) (A) (A)
                 (A) (A) (A) (A) (A) (A) (A) (A) (A) (A) (A) (A)
                 (A) (A) (A) (A) (A) (A) (A) (A) (A) (A) (A) (A)
                 (A) (A) (A) (A) (A) (A) (A) (A) (A) (A) (A) (A)
                 (A) (A) (A) (A) (A) (A) (A) (A) (A) (A) (A) (A)
                 (A) (A) (A) (A) (A) (A) (A) (A) (A) (A) (A) (A)
                 (A) (A) (A) (A) (A) (A) (A) (A) (A)
 The electronic state is 1-A.
 Alpha  occ. eigenvalues --  -10.18245 -10.17582 -10.17543 -10.16898 -10.16867
 Alpha  occ. eigenvalues --  -10.16687  -0.80801  -0.74258  -0.70913  -0.63467
 Alpha  occ. eigenvalues --   -0.60168  -0.54941  -0.45579  -0.44389  -0.43434
 Alpha  occ. eigenvalues --   -0.41022  -0.40381  -0.37819  -0.36158  -0.36086
 Alpha  occ. eigenvalues --   -0.34267  -0.33871  -0.31719  -0.30347  -0.30107
 Alpha virt. eigenvalues --    0.08955   0.11029   0.11846   0.12535   0.15090
 Alpha virt. eigenvalues --    0.15855   0.16651   0.17127   0.17800   0.18415
 Alpha virt. eigenvalues --    0.18944   0.19392   0.22852   0.24201   0.24638
 Alpha virt. eigenvalues --    0.25532   0.26737   0.27986   0.29499   0.50258
 Alpha virt. eigenvalues --    0.50956   0.51045   0.52843   0.54014   0.58215
 Alpha virt. eigenvalues --    0.59725   0.62729   0.65252   0.66508   0.68138
 Alpha virt. eigenvalues --    0.69995   0.75813   0.76325   0.79847   0.83021
 Alpha virt. eigenvalues --    0.85598   0.87673   0.88374   0.89238   0.90646
 Alpha virt. eigenvalues --    0.91962   0.92347   0.92875   0.94775   0.95873
 Alpha virt. eigenvalues --    0.97396   0.97625   0.98931   1.01207   1.02689
 Alpha virt. eigenvalues --    1.03393   1.07618   1.25558   1.35432   1.41885
 Alpha virt. eigenvalues --    1.42705   1.56593   1.59221   1.61252   1.70611
 Alpha virt. eigenvalues --    1.73390   1.77351   1.83322   1.87231   1.89534
 Alpha virt. eigenvalues --    1.91818   1.94978   1.97708   2.01266   2.02353
 Alpha virt. eigenvalues --    2.02759   2.11603   2.14457   2.18917   2.27059
 Alpha virt. eigenvalues --    2.28510   2.31251   2.32724   2.34476   2.37848
 Alpha virt. eigenvalues --    2.43730   2.45333   2.52650   2.65270   2.67215
 Alpha virt. eigenvalues --    2.76812   2.79924   4.12700   4.21453   4.27275
 Alpha virt. eigenvalues --    4.39678   4.44760   4.60828
          Condensed to atoms (all electrons):
              1          2          3          4          5          6
     1  C    5.073593   0.378205   0.377887   0.370195   0.369280  -0.038453
     2  H    0.378205   0.578021  -0.033328  -0.031270  -0.035180   0.005208
     3  H    0.377887  -0.033328   0.575056  -0.030946  -0.035412  -0.004437
     4  H    0.370195  -0.031270  -0.030946   0.581530  -0.028294  -0.002523
     5  C    0.369280  -0.035180  -0.035412  -0.028294   5.007354   0.368968
     6  H   -0.038453   0.005208  -0.004437  -0.002523   0.368968   0.615047
     7  H   -0.037476  -0.004381   0.005088  -0.002960   0.371947  -0.038721
     8  C   -0.041361  -0.005238  -0.005117   0.004280   0.387784  -0.036182
     9  H   -0.005195   0.005997  -0.000210   0.000070  -0.050638   0.005966
    10  C    0.004378   0.000072   0.000061  -0.000157  -0.041215  -0.003775
    11  H    0.000118   0.000011  -0.000001   0.000000  -0.008339   0.004598
    12  H   -0.000179  -0.000001   0.000000   0.000003   0.005125  -0.000073
    13  C    0.000130   0.000011  -0.000010   0.000001  -0.007162   0.000145
    14  H   -0.000018  -0.000007   0.000001   0.000000  -0.000070   0.000016
    15  H    0.000001   0.000000   0.000000   0.000000   0.000155  -0.000010
    16  H   -0.000308   0.000027   0.000002   0.000015   0.000833   0.000080
    17  C   -0.005050  -0.000197   0.001638   0.000073  -0.048897  -0.008662
    18  H    0.001514   0.000227   0.004709  -0.000147  -0.004794   0.000015
    19  H   -0.000008   0.000037   0.000154  -0.000012  -0.006120   0.005674
    20  H    0.000036  -0.000016  -0.000186   0.000002   0.005108   0.000057
              7          8          9         10         11         12
     1  C   -0.037476  -0.041361  -0.005195   0.004378   0.000118  -0.000179
     2  H   -0.004381  -0.005238   0.005997   0.000072   0.000011  -0.000001
     3  H    0.005088  -0.005117  -0.000210   0.000061  -0.000001   0.000000
     4  H   -0.002960   0.004280   0.000070  -0.000157   0.000000   0.000003
     5  C    0.371947   0.387784  -0.050638  -0.041215  -0.008339   0.005125
     6  H   -0.038721  -0.036182   0.005966  -0.003775   0.004598  -0.000073
     7  H    0.611134  -0.040881  -0.001713  -0.005778  -0.000024   0.000087
     8  C   -0.040881   4.863010   0.377461   0.384899  -0.036057  -0.037470
     9  H   -0.001713   0.377461   0.646491  -0.049064   0.005952  -0.001839
    10  C   -0.005778   0.384899  -0.049064   4.999636   0.368703   0.370041
    11  H   -0.000024  -0.036057   0.005952   0.368703   0.617087  -0.039698
    12  H    0.000087  -0.037470  -0.001839   0.370041  -0.039698   0.619669
    13  C    0.000778  -0.040625  -0.004980   0.371656  -0.038121  -0.038561
    14  H    0.000163  -0.005365   0.005780  -0.034854   0.005246  -0.004718
    15  H   -0.000224   0.004250   0.000065  -0.028299  -0.002905  -0.002715
    16  H    0.007293  -0.005150  -0.000153  -0.036023  -0.004125   0.005283
    17  C    0.005614   0.374622  -0.046116  -0.047507  -0.002713  -0.005371
    18  H   -0.000027  -0.031269  -0.002904   0.005107  -0.000143   0.000068
    19  H    0.000012  -0.032338   0.005583  -0.005819   0.003973  -0.000214
    20  H   -0.000185  -0.028565  -0.003396  -0.004899  -0.000199   0.005329
             13         14         15         16         17         18
     1  C    0.000130  -0.000018   0.000001  -0.000308  -0.005050   0.001514
     2  H    0.000011  -0.000007   0.000000   0.000027  -0.000197   0.000227
     3  H   -0.000010   0.000001   0.000000   0.000002   0.001638   0.004709
     4  H    0.000001   0.000000   0.000000   0.000015   0.000073  -0.000147
     5  C   -0.007162  -0.000070   0.000155   0.000833  -0.048897  -0.004794
     6  H    0.000145   0.000016  -0.000010   0.000080  -0.008662   0.000015
     7  H    0.000778   0.000163  -0.000224   0.007293   0.005614  -0.000027
     8  C   -0.040625  -0.005365   0.004250  -0.005150   0.374622  -0.031269
     9  H   -0.004980   0.005780   0.000065  -0.000153  -0.046116  -0.002904
    10  C    0.371656  -0.034854  -0.028299  -0.036023  -0.047507   0.005107
    11  H   -0.038121   0.005246  -0.002905  -0.004125  -0.002713  -0.000143
    12  H   -0.038561  -0.004718  -0.002715   0.005283  -0.005371   0.000068
    13  C    5.077100   0.377816   0.369964   0.375960   0.004487  -0.000182
    14  H    0.377816   0.578757  -0.031368  -0.033091   0.000095  -0.000003
    15  H    0.369964  -0.031368   0.581140  -0.030292  -0.000165   0.000003
    16  H    0.375960  -0.033091  -0.030292   0.574221   0.000068   0.000003
    17  C    0.004487   0.000095  -0.000165   0.000068   5.120522   0.367999
    18  H   -0.000182  -0.000003   0.000003   0.000003   0.367999   0.581611
    19  H    0.000067   0.000008   0.000003  -0.000001   0.372332  -0.032556
    20  H    0.000014  -0.000003  -0.000005   0.000003   0.369149  -0.030225
             19         20
     1  C   -0.000008   0.000036
     2  H    0.000037  -0.000016
     3  H    0.000154  -0.000186
     4  H   -0.000012   0.000002
     5  C   -0.006120   0.005108
     6  H    0.005674   0.000057
     7  H    0.000012  -0.000185
     8  C   -0.032338  -0.028565
     9  H    0.005583  -0.003396
    10  C   -0.005819  -0.004899
    11  H    0.003973  -0.000199
    12  H   -0.000214   0.005329
    13  C    0.000067   0.000014
    14  H    0.000008  -0.000003
    15  H    0.000003  -0.000005
    16  H   -0.000001   0.000003
    17  C    0.372332   0.369149
    18  H   -0.032556  -0.030225
    19  H    0.581873  -0.031900
    20  H   -0.031900   0.580537
 Mulliken atomic charges:
              1
     1  C   -0.447287
     2  H    0.141800
     3  H    0.145050
     4  H    0.140139
     5  C   -0.250433
     6  H    0.127062
     7  H    0.130254
     8  C   -0.050688
     9  H    0.112844
    10  C   -0.247162
    11  H    0.126637
    12  H    0.125234
    13  C   -0.448488
    14  H    0.141616
    15  H    0.140402
    16  H    0.145353
    17  C   -0.451924
    18  H    0.140995
    19  H    0.139250
    20  H    0.139343
 Sum of Mulliken atomic charges =   0.00000
 Mulliken charges with hydrogens summed into heavy atoms:
              1
     1  C   -0.020298
     5  C    0.006884
     8  C    0.062157
    10  C    0.004709
    13  C   -0.021117
    17  C   -0.032334
 Sum of Mulliken charges with hydrogens summed into heavy atoms =   0.00000
 Electronic spatial extent (au):  <R**2>=            814.3939
 Charge=              0.0000 electrons
 Dipole moment (field-independent basis, Debye):
    X=              0.0192    Y=             -0.0118    Z=              0.0090  Tot=              0.0243
 Quadrupole moment (field-independent basis, Debye-Ang):
   XX=            -42.0337   YY=            -41.8733   ZZ=            -41.1584
   XY=              0.1814   XZ=             -0.1212   YZ=             -0.1102
 Traceless Quadrupole moment (field-independent basis, Debye-Ang):
   XX=             -0.3453   YY=             -0.1848   ZZ=              0.5301
   XY=              0.1814   XZ=             -0.1212   YZ=             -0.1102
 Octapole moment (field-independent basis, Debye-Ang**2):
  XXX=              0.6419  YYY=             -1.1566  ZZZ=             -0.1294  XYY=              0.0390
  XXY=              1.2210  XXZ=              0.6777  XZZ=              0.1811  YZZ=              0.1603
  YYZ=              0.0219  XYZ=             -0.1553
 Hexadecapole moment (field-independent basis, Debye-Ang**3):
 XXXX=           -672.7290 YYYY=           -350.7549 ZZZZ=           -106.5933 XXXY=             -0.8110
 XXXZ=              0.7179 YYYX=              4.6079 YYYZ=             -2.7493 ZZZX=             -1.1067
 ZZZY=              2.4325 XXYY=           -171.3760 XXZZ=           -130.4395 YYZZ=            -75.7795
 XXYZ=             -2.7881 YYXZ=             -1.1245 ZZXY=              0.5351
 N-N= 2.568852940892D+02 E-N=-1.060680976058D+03  KE= 2.346121625875D+02
 No NMR shielding tensors so no spin-rotation constants.
 Leave Link  601 at Fri Sep 18 13:24:34 2015, MaxMem=  402653184 cpu:       0.3
 (Enter /share/apps/g09/l701.exe)
 Compute integral first derivatives.
 ... and contract with generalized density number  0.
 Leave Link  701 at Fri Sep 18 13:24:34 2015, MaxMem=  402653184 cpu:       0.3
 (Enter /share/apps/g09/l702.exe)
 L702 exits ... SP integral derivatives will be done elsewhere.
 Leave Link  702 at Fri Sep 18 13:24:34 2015, MaxMem=  402653184 cpu:       0.0
 (Enter /share/apps/g09/l703.exe)
 Compute integral first derivatives, UseDBF=F ICtDFT=           0.
 Integral derivatives from FoFDir, PRISM(SPDF).
 Calling FoFJK, ICntrl=      2127 FMM=F ISym2X=0 I1Cent= 0 IOpClX= 0 NMat=1 NMatS=1 NMatT=0.
 FoFCou: FMM=F IPFlag=           0 FMFlag=      100000 FMFlg1=         800
         NFxFlg=           0 DoJE=F BraDBF=F KetDBF=F FulRan=T
         Omega=  0.000000  0.000000  1.000000  0.000000  0.000000 ICntrl=    2127 IOpCl=  0
         NMat0=    1 NMatS0=    1 NMatT0=    0 NMatD0=    1 NMtDS0=    0 NMtDT0=    0
         I1Cent=           0 NGrid=           0.
 Symmetry not used in FoFCou.
 Leave Link  703 at Fri Sep 18 13:24:46 2015, MaxMem=  402653184 cpu:      24.5
 (Enter /share/apps/g09/l716.exe)
 Dipole        = 7.54588017D-03-4.66092649D-03 3.52713433D-03
 ***** Axes restored to original set *****
 -------------------------------------------------------------------
 Center     Atomic                   Forces (Hartrees/Bohr)
 Number     Number              X              Y              Z
 -------------------------------------------------------------------
      1        6          -0.004458024   -0.002006086    0.001947364
      2        1           0.001003995   -0.000321722   -0.000560377
      3        1          -0.000469871   -0.000685741    0.000145532
      4        1          -0.000930584   -0.000316346   -0.000006151
      5        6           0.003563765   -0.004542972   -0.001202204
      6        1           0.001345549    0.000352299   -0.004476825
      7        1          -0.005179685    0.005330347   -0.000860936
      8        6           0.003611338    0.002832648    0.003581612
      9        1           0.000524453    0.001620393    0.009813184
     10        6           0.001440381    0.003837317   -0.002982408
     11        1          -0.001662848   -0.000516022   -0.004249111
     12        1          -0.002515253   -0.004641266    0.000943866
     13        6           0.004342932   -0.002579611    0.001900759
     14        1          -0.000380548    0.000865988   -0.000758949
     15        1           0.000718459   -0.000665741    0.000084666
     16        1           0.001573011    0.000236560   -0.000132138
     17        6          -0.004468249   -0.000141175   -0.004524682
     18        1          -0.000130502    0.001694583   -0.000079311
     19        1           0.001089775   -0.000875774    0.002065874
     20        1           0.000981906    0.000522321   -0.000649768
 -------------------------------------------------------------------
 Cartesian Forces:  Max     0.009813184 RMS     0.002700366
 Leave Link  716 at Fri Sep 18 13:24:46 2015, MaxMem=  402653184 cpu:       0.0
 (Enter /share/apps/g09/l103.exe)

 GradGradGradGradGradGradGradGradGradGradGradGradGradGradGradGradGradGrad
 Berny optimization.
 Internal  Forces:  Max     0.009957415 RMS     0.002426632
 Search for a local minimum.
 Step number   1 out of a maximum of  110
 All quantities printed in internal units (Hartrees-Bohrs-Radians)
 RMS Force = .24266D-02 SwitMx=.10000D-02 MixMth= 1
 Mixed Optimization -- RFO/linear search
 Second derivative matrix not updated -- first step.
     Eigenvalues ---    0.00230   0.00230   0.00306   0.00411   0.00411
     Eigenvalues ---    0.03456   0.03460   0.03597   0.04624   0.04775
     Eigenvalues ---    0.04777   0.04779   0.05364   0.05442   0.05449
     Eigenvalues ---    0.05454   0.05490   0.05497   0.08347   0.08351
     Eigenvalues ---    0.12219   0.12222   0.16000   0.16000   0.16000
     Eigenvalues ---    0.16000   0.16000   0.16000   0.16000   0.16000
     Eigenvalues ---    0.16000   0.16435   0.16655   0.21866   0.21871
     Eigenvalues ---    0.28054   0.28177   0.28986   0.29717   0.29720
     Eigenvalues ---    0.31806   0.32750   0.32844   0.32966   0.32973
     Eigenvalues ---    0.34045   0.34117   0.34141   0.34154   0.34167
     Eigenvalues ---    0.34185   0.34190   0.34248   0.342791000.00000
     Eigenvalues --- 1000.000001000.000001000.000001000.000001000.00000
     Eigenvalues --- 1000.000001000.000001000.000001000.000001000.00000
     Eigenvalues --- 1000.000001000.000001000.000001000.000001000.00000
     Eigenvalues --- 1000.000001000.000001000.000001000.000001000.00000
     Eigenvalues --- 1000.000001000.000001000.000001000.000001000.00000
     Eigenvalues --- 1000.000001000.000001000.000001000.000001000.00000
     Eigenvalues --- 1000.000001000.000001000.000001000.000001000.00000
     Eigenvalues --- 1000.000001000.000001000.000001000.000001000.00000
     Eigenvalues --- 1000.000001000.000001000.000001000.000001000.00000
 RFO step:  Lambda=-2.88042740D-03 EMin= 2.30000000D-03
 Linear search not attempted -- first point.
 Iteration  1 RMS(Cart)=  0.04941826 RMS(Int)=  0.00067294
 Iteration  2 RMS(Cart)=  0.00101800 RMS(Int)=  0.00013376
 Iteration  3 RMS(Cart)=  0.00000034 RMS(Int)=  0.00013375
 Variable       Old X    -DE/DX   Delta X   Delta X   Delta X     New X
                                 (Linear)    (Quad)   (Total)
    R1        2.07071   0.00076   0.00000   0.00221   0.00221   2.07292
    R2        2.07133  -0.00031   0.00000  -0.00090  -0.00090   2.07043
    R3        2.07019   0.00071   0.00000   0.00205   0.00205   2.07224
    R4        2.88531   0.00413   0.00000   0.01377   0.01377   2.89909
    R5        2.09099  -0.00434   0.00000  -0.01304  -0.01304   2.07795
    R6        2.09492  -0.00728   0.00000  -0.02204  -0.02204   2.07288
    R7        2.91753   0.00193   0.00000   0.00677   0.00677   2.92430
    R8        2.11200  -0.00993   0.00000  -0.03094  -0.03094   2.08105
    R9        2.92021   0.00168   0.00000   0.00592   0.00592   2.92614
   R10        2.90031   0.00169   0.00000   0.00578   0.00578   2.90609
   R11        2.09111  -0.00429   0.00000  -0.01291  -0.01291   2.07820
   R12        2.09326  -0.00531   0.00000  -0.01602  -0.01602   2.07724
   R13        2.88524   0.00453   0.00000   0.01508   0.01508   2.90033
   R14        2.07093   0.00071   0.00000   0.00205   0.00205   2.07298
   R15        2.07010   0.00070   0.00000   0.00204   0.00204   2.07214
   R16        2.07254  -0.00093   0.00000  -0.00270  -0.00270   2.06984
   R17        2.07049   0.00021   0.00000   0.00060   0.00060   2.07109
   R18        2.06914   0.00174   0.00000   0.00505   0.00505   2.07418
   R19        2.06863   0.00120   0.00000   0.00347   0.00347   2.07209
    A1        1.87395   0.00034   0.00000   0.00224   0.00226   1.87621
    A2        1.87621   0.00017   0.00000  -0.00041  -0.00039   1.87582
    A3        1.94775  -0.00161   0.00000  -0.01057  -0.01055   1.93719
    A4        1.87505  -0.00090   0.00000  -0.00422  -0.00425   1.87080
    A5        1.94763   0.00100   0.00000   0.00688   0.00687   1.95450
    A6        1.93956   0.00098   0.00000   0.00592   0.00591   1.94548
    A7        1.91764  -0.00150   0.00000  -0.00585  -0.00566   1.91198
    A8        1.90733  -0.00365   0.00000  -0.01658  -0.01689   1.89044
    A9        1.96571   0.00792   0.00000   0.03756   0.03757   2.00328
   A10        1.84437   0.00164   0.00000   0.00124   0.00115   1.84552
   A11        1.91695  -0.00393   0.00000  -0.02466  -0.02459   1.89236
   A12        1.90785  -0.00090   0.00000   0.00597   0.00597   1.91383
   A13        1.89374  -0.00093   0.00000  -0.01578  -0.01555   1.87819
   A14        1.93289   0.00300   0.00000   0.03066   0.03043   1.96331
   A15        1.93772  -0.00068   0.00000   0.00820   0.00762   1.94534
   A16        1.89197  -0.00132   0.00000  -0.02107  -0.02087   1.87110
   A17        1.89032   0.00029   0.00000  -0.01321  -0.01317   1.87715
   A18        1.91598  -0.00045   0.00000   0.00911   0.00855   1.92452
   A19        1.91759  -0.00408   0.00000  -0.01958  -0.01988   1.89771
   A20        1.90874  -0.00287   0.00000  -0.01410  -0.01406   1.89468
   A21        1.96552   0.00996   0.00000   0.04740   0.04744   2.01296
   A22        1.84225   0.00204   0.00000   0.00095   0.00070   1.84295
   A23        1.91902  -0.00209   0.00000  -0.00116  -0.00111   1.91792
   A24        1.90660  -0.00352   0.00000  -0.01677  -0.01665   1.88996
   A25        1.94738  -0.00179   0.00000  -0.01154  -0.01152   1.93585
   A26        1.94034   0.00085   0.00000   0.00453   0.00451   1.94484
   A27        1.94769   0.00166   0.00000   0.01140   0.01139   1.95909
   A28        1.87625   0.00024   0.00000  -0.00085  -0.00085   1.87540
   A29        1.87256   0.00021   0.00000   0.00257   0.00260   1.87516
   A30        1.87590  -0.00122   0.00000  -0.00642  -0.00646   1.86945
   A31        1.93892   0.00308   0.00000   0.02298   0.02303   1.96195
   A32        1.95026  -0.00288   0.00000  -0.01987  -0.01992   1.93034
   A33        1.94555  -0.00073   0.00000  -0.00635  -0.00647   1.93908
   A34        1.87240   0.00025   0.00000   0.00497   0.00509   1.87749
   A35        1.87451  -0.00079   0.00000  -0.00070  -0.00072   1.87379
   A36        1.87850   0.00112   0.00000  -0.00060  -0.00082   1.87768
    D1       -3.10127   0.00015   0.00000  -0.00363  -0.00363  -3.10490
    D2       -1.08509  -0.00080   0.00000  -0.01482  -0.01473  -1.09982
    D3        1.03889   0.00077   0.00000   0.00619   0.00610   1.04499
    D4        1.08525   0.00013   0.00000  -0.00395  -0.00394   1.08130
    D5        3.10143  -0.00082   0.00000  -0.01515  -0.01504   3.08638
    D6       -1.05778   0.00075   0.00000   0.00586   0.00579  -1.05199
    D7       -1.00724  -0.00006   0.00000  -0.00725  -0.00726  -1.01449
    D8        1.00894  -0.00101   0.00000  -0.01844  -0.01836   0.99059
    D9        3.13292   0.00056   0.00000   0.00257   0.00248   3.13540
   D10       -0.80965   0.00022   0.00000  -0.01870  -0.01890  -0.82855
   D11       -2.88422   0.00064   0.00000  -0.00134  -0.00140  -2.88562
   D12        1.26577  -0.00040   0.00000  -0.03986  -0.04014   1.22564
   D13       -2.95306  -0.00052   0.00000  -0.01942  -0.01936  -2.97242
   D14        1.25555  -0.00010   0.00000  -0.00205  -0.00186   1.25369
   D15       -0.87764  -0.00114   0.00000  -0.04057  -0.04060  -0.91824
   D16        1.31403   0.00023   0.00000  -0.01047  -0.01039   1.30365
   D17       -0.76054   0.00065   0.00000   0.00689   0.00712  -0.75342
   D18       -2.89373  -0.00039   0.00000  -0.03162  -0.03162  -2.92535
   D19       -0.88429  -0.00109   0.00000   0.00551   0.00550  -0.87879
   D20       -2.89870   0.00038   0.00000   0.02334   0.02311  -2.87559
   D21        1.26124   0.00021   0.00000   0.02291   0.02270   1.28394
   D22       -2.95993  -0.00091   0.00000   0.01970   0.01989  -2.94005
   D23        1.30885   0.00056   0.00000   0.03753   0.03749   1.34634
   D24       -0.81440   0.00039   0.00000   0.03710   0.03709  -0.77732
   D25        1.26155  -0.00023   0.00000   0.04277   0.04302   1.30457
   D26       -0.75285   0.00123   0.00000   0.06060   0.06063  -0.69223
   D27       -2.87610   0.00107   0.00000   0.06017   0.06022  -2.81588
   D28       -0.98474   0.00145   0.00000   0.01632   0.01633  -0.96841
   D29        1.10571   0.00193   0.00000   0.02489   0.02478   1.13049
   D30       -3.07470   0.00086   0.00000   0.00598   0.00600  -3.06870
   D31        1.09274   0.00009   0.00000  -0.00637  -0.00634   1.08640
   D32       -3.10000   0.00057   0.00000   0.00220   0.00212  -3.09788
   D33       -0.99723  -0.00050   0.00000  -0.01671  -0.01666  -1.01389
   D34       -3.12773  -0.00159   0.00000  -0.03432  -0.03426   3.12120
   D35       -1.03728  -0.00110   0.00000  -0.02574  -0.02580  -1.06308
   D36        1.06549  -0.00217   0.00000  -0.04465  -0.04458   1.02091
   D37        1.06552   0.00018   0.00000  -0.01306  -0.01319   1.05233
   D38       -3.12330  -0.00015   0.00000  -0.01886  -0.01899   3.14089
   D39       -1.02917   0.00000   0.00000  -0.01624  -0.01634  -1.04550
   D40       -3.07294   0.00037   0.00000  -0.00592  -0.00584  -3.07878
   D41       -0.97857   0.00004   0.00000  -0.01172  -0.01164  -0.99022
   D42        1.11556   0.00019   0.00000  -0.00910  -0.00899   1.10658
   D43       -1.05895  -0.00034   0.00000  -0.01495  -0.01493  -1.07387
   D44        1.03542  -0.00067   0.00000  -0.02075  -0.02073   1.01469
   D45        3.12955  -0.00052   0.00000  -0.01812  -0.01807   3.11148
         Item               Value     Threshold  Converged?
 Maximum Force            0.009957     0.000015     NO 
 RMS     Force            0.002427     0.000010     NO 
 Maximum Displacement     0.230276     0.000060     NO 
 RMS     Displacement     0.049284     0.000040     NO 
 Predicted change in Energy=-1.498384D-03
 GradGradGradGradGradGradGradGradGradGradGradGradGradGradGradGradGradGrad

 Leave Link  103 at Fri Sep 18 13:24:46 2015, MaxMem=  402653184 cpu:       0.1
 (Enter /share/apps/g09/l202.exe)
                          Input orientation:                          
 ---------------------------------------------------------------------
 Center     Atomic      Atomic             Coordinates (Angstroms)
 Number     Number       Type             X           Y           Z
 ---------------------------------------------------------------------
      1          6           0       -2.242189   -0.939442   -0.186770
      2          1           0       -2.106761   -1.304379   -1.212323
      3          1           0       -2.856996   -0.034010   -0.237778
      4          1           0       -2.821853   -1.694512    0.357610
      5          6           0       -0.888853   -0.677515    0.486605
      6          1           0       -1.051198   -0.349323    1.523460
      7          1           0       -0.348844   -1.629709    0.556964
      8          6           0       -0.002441    0.372157   -0.225535
      9          1           0        0.007284    0.126852   -1.299069
     10          6           0        1.465760    0.338531    0.265319
     11          1           0        1.471531    0.373320    1.364487
     12          1           0        1.965318    1.261307   -0.062137
     13          6           0        2.294441   -0.857228   -0.223574
     14          1           0        2.353002   -0.871475   -1.318888
     15          1           0        3.320856   -0.817043    0.160143
     16          1           0        1.868597   -1.814808    0.094863
     17          6           0       -0.580822    1.789519   -0.078880
     18          1           0       -1.614693    1.857954   -0.436073
     19          1           0       -0.572156    2.103243    0.972905
     20          1           0        0.010375    2.517825   -0.646662
 ---------------------------------------------------------------------
                    Distance matrix (angstroms):
                    1          2          3          4          5
     1  C    0.000000
     2  H    1.096940   0.000000
     3  H    1.095626   1.768170   0.000000
     4  H    1.096582   1.768686   1.764367   0.000000
     5  C    1.534131   2.182341   2.193721   2.188015   0.000000
     6  H    2.166007   3.083967   2.542103   2.510768   1.099606
     7  H    2.148107   2.515251   3.077125   2.481877   1.096921
     8  C    2.595816   2.865778   2.883332   3.544046   1.547476
     9  H    2.726595   2.554435   3.058809   3.750463   2.153764
    10  C    3.947972   4.200653   4.367849   4.746094   2.574009
    11  H    4.233374   4.717923   4.633499   4.870613   2.728799
    12  H    4.749941   4.948484   4.996339   5.641814   3.493772
    13  C    4.537524   4.533007   5.216818   5.216827   3.266499
    14  H    4.733085   4.481992   5.386486   5.501560   3.715785
    15  H    5.575194   5.619625   6.239978   6.208205   4.224653
    16  H    4.212380   4.215774   5.060940   4.699343   3.008393
    17  C    3.196718   3.631169   2.920869   4.165479   2.549689
    18  H    2.877729   3.293181   2.272040   3.834995   2.794061
    19  H    3.659478   4.329216   3.354712   4.456755   2.840668
    20  H    4.151896   4.405846   3.860163   5.174347   3.507578
                    6          7          8          9         10
     6  H    0.000000
     7  H    1.751230   0.000000
     8  C    2.163194   2.177101   0.000000
     9  H    3.051852   2.580154   1.101247   0.000000
    10  C    2.896747   2.692919   1.548445   2.149248   0.000000
    11  H    2.629001   2.824532   2.168125   3.049474   1.099734
    12  H    3.769300   3.754545   2.165494   2.578931   1.099228
    13  C    3.808333   2.862328   2.605199   2.712230   1.534786
    14  H    4.465442   3.375458   2.879263   2.549401   2.181978
    15  H    4.603504   3.779496   3.550668   3.741656   2.188103
    16  H    3.565633   2.272629   2.895903   3.029452   2.197317
    17  C    2.713557   3.485575   1.537838   2.144572   2.532259
    18  H    3.004891   3.840871   2.202561   2.524338   3.505679
    19  H    2.558842   3.762686   2.181167   3.066551   2.787111
    20  H    3.749254   4.333566   2.186642   2.478386   2.774739
                   11         12         13         14         15
    11  H    0.000000
    12  H    1.751458   0.000000
    13  C    2.171029   2.150018   0.000000
    14  H    3.086586   2.505691   1.096971   0.000000
    15  H    2.507471   2.491271   1.096531   1.768399   0.000000
    16  H    2.560764   3.081638   1.095311   1.767263   1.763194
    17  C    2.881159   2.600406   3.910670   4.150402   4.698338
    18  H    3.869229   3.648601   4.764315   4.896096   5.645416
    19  H    2.706035   2.866870   4.291076   4.760023   4.933984
    20  H    3.283078   2.396311   4.097188   4.174584   4.767763
                   16         17         18         19         20
    16  H    0.000000
    17  C    4.361309   0.000000
    18  H    5.089635   1.095975   0.000000
    19  H    4.698868   1.097610   1.769821   0.000000
    20  H    4.772270   1.096503   1.766529   1.770372   0.000000
 Stoichiometry    C6H14
 Framework group  C1[X(C6H14)]
 Deg. of freedom    54
 Full point group                 C1      NOp   1
 Largest Abelian subgroup         C1      NOp   1
 Largest concise Abelian subgroup C1      NOp   1
                         Standard orientation:                         
 ---------------------------------------------------------------------
 Center     Atomic      Atomic             Coordinates (Angstroms)
 Number     Number       Type             X           Y           Z
 ---------------------------------------------------------------------
      1          6           0       -2.245223   -0.921610   -0.203282
      2          1           0       -2.107768   -1.280463   -1.230710
      3          1           0       -2.854103   -0.011989   -0.250719
      4          1           0       -2.831917   -1.676662    0.333543
      5          6           0       -0.893121   -0.672790    0.477500
      6          1           0       -1.057772   -0.350587    1.515868
      7          1           0       -0.359412   -1.628831    0.543658
      8          6           0        0.002873    0.376044   -0.223801
      9          1           0        0.015585    0.137936   -1.298923
     10          6           0        1.468749    0.329831    0.272942
     11          1           0        1.470100    0.357161    1.372335
     12          1           0        1.975478    1.251622   -0.046163
     13          6           0        2.291949   -0.867812   -0.220579
     14          1           0        2.355040   -0.875034   -1.315711
     15          1           0        3.316968   -0.836704    0.167685
     16          1           0        1.858751   -1.824811    0.089580
     17          6           0       -0.567196    1.796009   -0.069960
     18          1           0       -1.599100    1.873385   -0.430996
     19          1           0       -0.560996    2.102564    0.983954
     20          1           0        0.030960    2.524383   -0.630318
 ---------------------------------------------------------------------
 Rotational constants (GHZ):      4.5426523      2.1908682      1.6372712
 Leave Link  202 at Fri Sep 18 13:24:46 2015, MaxMem=  402653184 cpu:       0.0
 (Enter /share/apps/g09/l301.exe)
 Standard basis: 6-31G(d) (6D, 7F)
 Ernie: Thresh=  0.10000D-02 Tol=  0.10000D-05 Strict=F.
 There are   118 symmetry adapted basis functions of A   symmetry.
 Integral buffers will be    131072 words long.
 Raffenetti 2 integral format.
 Two-electron integral symmetry is turned on.
   118 basis functions,   224 primitive gaussians,   118 cartesian basis functions
    25 alpha electrons       25 beta electrons
       nuclear repulsion energy       255.2761034546 Hartrees.
 IExCor=  402 DFT=T Ex+Corr=B3LYP ExCW=0 ScaHFX=  0.200000
 ScaDFX=  0.800000  0.720000  1.000000  0.810000 ScalE2=  1.000000  1.000000
 IRadAn=      5 IRanWt=     -1 IRanGd=            0 ICorTp=0
 NAtoms=   20 NActive=   20 NUniq=   20 SFac= 7.50D-01 NAtFMM=   80 NAOKFM=F Big=F
 Leave Link  301 at Fri Sep 18 13:24:46 2015, MaxMem=  402653184 cpu:       0.1
 (Enter /share/apps/g09/l302.exe)
 NPDir=0 NMtPBC=     1 NCelOv=     1 NCel=       1 NClECP=     1 NCelD=      1
         NCelK=      1 NCelE2=     1 NClLst=     1 CellRange=     0.0.
 One-electron integrals computed using PRISM.
 NBasis=   118 RedAO= T  NBF=   118
 NBsUse=   118 1.00D-06 NBFU=   118
 Precomputing XC quadrature grid using
 IXCGrd= 2 IRadAn=           5 IRanWt=          -1 IRanGd=           0 AccXCQ= 1.00D-10.
 NRdTot=    1645 NPtTot=      440330 NUsed=      452118 NTot=      452150
 NSgBfM=   118   118   118   118   118 NAtAll=    20    20.
 Leave Link  302 at Fri Sep 18 13:24:47 2015, MaxMem=  402653184 cpu:       1.2
 (Enter /share/apps/g09/l303.exe)
 DipDrv:  MaxL=1.
 Leave Link  303 at Fri Sep 18 13:24:47 2015, MaxMem=  402653184 cpu:       0.1
 (Enter /share/apps/g09/l401.exe)
 Initial guess read from the read-write file.
 B after Tr=     0.000000    0.000000    0.000000
         Rot=    1.000000    0.000000    0.000000    0.000000 Ang=   0.00 deg.
 Guess basis will be translated and rotated to current coordinates.
 Initial guess orbital symmetries:
       Occupied  (A) (A) (A) (A) (A) (A) (A) (A) (A) (A) (A) (A)
                 (A) (A) (A) (A) (A) (A) (A) (A) (A) (A) (A) (A)
                 (A)
       Virtual   (A) (A) (A) (A) (A) (A) (A) (A) (A) (A) (A) (A)
                 (A) (A) (A) (A) (A) (A) (A) (A) (A) (A) (A) (A)
                 (A) (A) (A) (A) (A) (A) (A) (A) (A) (A) (A) (A)
                 (A) (A) (A) (A) (A) (A) (A) (A) (A) (A) (A) (A)
                 (A) (A) (A) (A) (A) (A) (A) (A) (A) (A) (A) (A)
                 (A) (A) (A) (A) (A) (A) (A) (A) (A) (A) (A) (A)
                 (A) (A) (A) (A) (A) (A) (A) (A) (A) (A) (A) (A)
                 (A) (A) (A) (A) (A) (A) (A) (A) (A)
 The electronic state of the initial guess is 1-A.
 Generating alternative initial guess.
 Harris functional with IExCor=  402 diagonalized for initial guess.
 ExpMin= 1.61D-01 ExpMax= 3.05D+03 ExpMxC= 4.57D+02 IAcc=3 IRadAn=         5 AccDes= 0.00D+00
 HarFok:  IExCor=  402 AccDes= 0.00D+00 IRadAn=         5 IDoV= 1
 ScaDFX=  1.000000  1.000000  1.000000  1.000000
 FoFCou: FMM=F IPFlag=           0 FMFlag=      100000 FMFlg1=           0
         NFxFlg=           0 DoJE=T BraDBF=F KetDBF=T FulRan=T
         Omega=  0.000000  0.000000  1.000000  0.000000  0.000000 ICntrl=     500 IOpCl=  0
         NMat0=    1 NMatS0=    1 NMatT0=    0 NMatD0=    1 NMtDS0=    0 NMtDT0=    0
         I1Cent=           4 NGrid=           0.
 Petite list used in FoFCou.
 Harris En= -237.180123042982    
 Leave Link  401 at Fri Sep 18 13:24:52 2015, MaxMem=  402653184 cpu:      10.5
 (Enter /share/apps/g09/l502.exe)
 Closed shell SCF:
 Requested convergence on RMS density matrix=1.00D-08 within 128 cycles.
 Requested convergence on MAX density matrix=1.00D-06.
 Requested convergence on             energy=1.00D-06.
 No special actions if energy rises.
 Using DIIS extrapolation, IDIIS=  1040.
 Integral symmetry usage will be decided dynamically.
       451925 words used for storage of precomputed grid.
 Keep R1 ints in memory in canonical form, NReq=26105980.
 IEnd=      513469 IEndB=      513469 NGot=   402653184 MDV=   377519639
 LenX=   377519639 LenY=   377505274
 Symmetry not used in FoFDir.
 MinBra= 0 MaxBra= 2 Meth= 1.
 IRaf=       0 NMat=   1 IRICut=       1 DoRegI=T DoRafI=F ISym2E= 0 JSym2E=0.
 Integral accuracy reduced to 1.0D-05 until final iterations.

 Cycle   1  Pass 0  IDiag  1:
 E= -237.080812131010    
 DIIS: error= 1.97D-03 at cycle   1 NSaved=   1.
 NSaved= 1 IEnMin= 1 EnMin= -237.080812131010     IErMin= 1 ErrMin= 1.97D-03
 ErrMax= 1.97D-03 EMaxC= 1.00D-01 BMatC= 9.85D-04 BMatP= 9.85D-04
 IDIUse=3 WtCom= 9.80D-01 WtEn= 1.97D-02
 Coeff-Com:  0.100D+01
 Coeff-En:   0.100D+01
 Coeff:      0.100D+01
 Gap=     0.395 Goal=   None    Shift=    0.000
 GapD=    0.395 DampG=1.000 DampE=1.000 DampFc=1.0000 IDamp=-1.
 RMSDP=3.94D-04 MaxDP=5.81D-03              OVMax= 1.16D-02

 Cycle   2  Pass 0  IDiag  1:
 E= -237.082658533081     Delta-E=       -0.001846402071 Rises=F Damp=F
 DIIS: error= 2.61D-04 at cycle   2 NSaved=   2.
 NSaved= 2 IEnMin= 2 EnMin= -237.082658533081     IErMin= 2 ErrMin= 2.61D-04
 ErrMax= 2.61D-04 EMaxC= 1.00D-01 BMatC= 2.54D-05 BMatP= 9.85D-04
 IDIUse=3 WtCom= 9.97D-01 WtEn= 2.61D-03
 Coeff-Com: -0.242D-01 0.102D+01
 Coeff-En:   0.000D+00 0.100D+01
 Coeff:     -0.241D-01 0.102D+01
 Gap=     0.392 Goal=   None    Shift=    0.000
 RMSDP=9.72D-05 MaxDP=1.42D-03 DE=-1.85D-03 OVMax= 1.96D-03

 Cycle   3  Pass 0  IDiag  1:
 E= -237.082667122602     Delta-E=       -0.000008589521 Rises=F Damp=F
 DIIS: error= 3.15D-04 at cycle   3 NSaved=   3.
 NSaved= 3 IEnMin= 3 EnMin= -237.082667122602     IErMin= 2 ErrMin= 2.61D-04
 ErrMax= 3.15D-04 EMaxC= 1.00D-01 BMatC= 2.63D-05 BMatP= 2.54D-05
 IDIUse=3 WtCom= 9.97D-01 WtEn= 3.15D-03
 Coeff-Com: -0.353D-01 0.532D+00 0.503D+00
 Coeff-En:   0.000D+00 0.405D+00 0.595D+00
 Coeff:     -0.352D-01 0.532D+00 0.503D+00
 Gap=     0.393 Goal=   None    Shift=    0.000
 RMSDP=4.89D-05 MaxDP=7.87D-04 DE=-8.59D-06 OVMax= 1.00D-03

 Cycle   4  Pass 0  IDiag  1:
 E= -237.082693104893     Delta-E=       -0.000025982291 Rises=F Damp=F
 DIIS: error= 4.37D-05 at cycle   4 NSaved=   4.
 NSaved= 4 IEnMin= 4 EnMin= -237.082693104893     IErMin= 4 ErrMin= 4.37D-05
 ErrMax= 4.37D-05 EMaxC= 1.00D-01 BMatC= 5.42D-07 BMatP= 2.54D-05
 IDIUse=1 WtCom= 1.00D+00 WtEn= 0.00D+00
 Coeff-Com: -0.124D-01 0.136D+00 0.186D+00 0.690D+00
 Coeff:     -0.124D-01 0.136D+00 0.186D+00 0.690D+00
 Gap=     0.393 Goal=   None    Shift=    0.000
 RMSDP=7.71D-06 MaxDP=1.06D-04 DE=-2.60D-05 OVMax= 1.53D-04

 Initial convergence to 1.0D-05 achieved.  Increase integral accuracy.
 Cycle   5  Pass 1  IDiag  1:
 E= -237.082679112034     Delta-E=        0.000013992858 Rises=F Damp=F
 DIIS: error= 7.70D-06 at cycle   1 NSaved=   1.
 NSaved= 1 IEnMin= 1 EnMin= -237.082679112034     IErMin= 1 ErrMin= 7.70D-06
 ErrMax= 7.70D-06 EMaxC= 1.00D-01 BMatC= 1.80D-08 BMatP= 1.80D-08
 IDIUse=1 WtCom= 1.00D+00 WtEn= 0.00D+00
 Coeff-Com:  0.100D+01
 Coeff:      0.100D+01
 Gap=     0.393 Goal=   None    Shift=    0.000
 RMSDP=7.71D-06 MaxDP=1.06D-04 DE= 1.40D-05 OVMax= 5.41D-05

 Cycle   6  Pass 1  IDiag  1:
 E= -237.082679115190     Delta-E=       -0.000000003156 Rises=F Damp=F
 DIIS: error= 9.71D-06 at cycle   2 NSaved=   2.
 NSaved= 2 IEnMin= 2 EnMin= -237.082679115190     IErMin= 1 ErrMin= 7.70D-06
 ErrMax= 9.71D-06 EMaxC= 1.00D-01 BMatC= 1.71D-08 BMatP= 1.80D-08
 IDIUse=1 WtCom= 1.00D+00 WtEn= 0.00D+00
 Coeff-Com:  0.493D+00 0.507D+00
 Coeff:      0.493D+00 0.507D+00
 Gap=     0.393 Goal=   None    Shift=    0.000
 RMSDP=1.30D-06 MaxDP=2.83D-05 DE=-3.16D-09 OVMax= 3.14D-05

 Cycle   7  Pass 1  IDiag  1:
 E= -237.082679131822     Delta-E=       -0.000000016632 Rises=F Damp=F
 DIIS: error= 1.70D-06 at cycle   3 NSaved=   3.
 NSaved= 3 IEnMin= 3 EnMin= -237.082679131822     IErMin= 3 ErrMin= 1.70D-06
 ErrMax= 1.70D-06 EMaxC= 1.00D-01 BMatC= 5.17D-10 BMatP= 1.71D-08
 IDIUse=1 WtCom= 1.00D+00 WtEn= 0.00D+00
 Coeff-Com:  0.116D+00 0.193D+00 0.692D+00
 Coeff:      0.116D+00 0.193D+00 0.692D+00
 Gap=     0.393 Goal=   None    Shift=    0.000
 RMSDP=2.69D-07 MaxDP=5.70D-06 DE=-1.66D-08 OVMax= 5.90D-06

 Cycle   8  Pass 1  IDiag  1:
 E= -237.082679132321     Delta-E=       -0.000000000499 Rises=F Damp=F
 DIIS: error= 3.47D-07 at cycle   4 NSaved=   4.
 NSaved= 4 IEnMin= 4 EnMin= -237.082679132321     IErMin= 4 ErrMin= 3.47D-07
 ErrMax= 3.47D-07 EMaxC= 1.00D-01 BMatC= 2.65D-11 BMatP= 5.17D-10
 IDIUse=1 WtCom= 1.00D+00 WtEn= 0.00D+00
 Coeff-Com: -0.667D-02 0.167D-01 0.218D+00 0.772D+00
 Coeff:     -0.667D-02 0.167D-01 0.218D+00 0.772D+00
 Gap=     0.393 Goal=   None    Shift=    0.000
 RMSDP=6.13D-08 MaxDP=8.25D-07 DE=-4.99D-10 OVMax= 1.16D-06

 Cycle   9  Pass 1  IDiag  1:
 E= -237.082679132346     Delta-E=       -0.000000000025 Rises=F Damp=F
 DIIS: error= 9.64D-08 at cycle   5 NSaved=   5.
 NSaved= 5 IEnMin= 5 EnMin= -237.082679132346     IErMin= 5 ErrMin= 9.64D-08
 ErrMax= 9.64D-08 EMaxC= 1.00D-01 BMatC= 2.56D-12 BMatP= 2.65D-11
 IDIUse=1 WtCom= 1.00D+00 WtEn= 0.00D+00
 Coeff-Com: -0.644D-02 0.377D-02 0.964D-01 0.396D+00 0.510D+00
 Coeff:     -0.644D-02 0.377D-02 0.964D-01 0.396D+00 0.510D+00
 Gap=     0.393 Goal=   None    Shift=    0.000
 RMSDP=1.25D-08 MaxDP=3.50D-07 DE=-2.49D-11 OVMax= 2.85D-07

 Cycle  10  Pass 1  IDiag  1:
 E= -237.082679132348     Delta-E=       -0.000000000002 Rises=F Damp=F
 DIIS: error= 7.12D-09 at cycle   6 NSaved=   6.
 NSaved= 6 IEnMin= 6 EnMin= -237.082679132348     IErMin= 6 ErrMin= 7.12D-09
 ErrMax= 7.12D-09 EMaxC= 1.00D-01 BMatC= 2.10D-14 BMatP= 2.56D-12
 IDIUse=1 WtCom= 1.00D+00 WtEn= 0.00D+00
 Coeff-Com: -0.926D-03-0.893D-04 0.901D-02 0.401D-01 0.107D+00 0.845D+00
 Coeff:     -0.926D-03-0.893D-04 0.901D-02 0.401D-01 0.107D+00 0.845D+00
 Gap=     0.393 Goal=   None    Shift=    0.000
 RMSDP=1.75D-09 MaxDP=2.61D-08 DE=-1.71D-12 OVMax= 3.19D-08

 SCF Done:  E(RB3LYP) =  -237.082679132     A.U. after   10 cycles
             Convg  =    0.1747D-08             -V/T =  2.0106
 KE= 2.346070875937D+02 PE=-1.057455909936D+03 EE= 3.304900397553D+02
 Leave Link  502 at Fri Sep 18 13:25:44 2015, MaxMem=  402653184 cpu:     102.5
 (Enter /share/apps/g09/l701.exe)
 Compute integral first derivatives.
 ... and contract with generalized density number  0.
 Leave Link  701 at Fri Sep 18 13:25:44 2015, MaxMem=  402653184 cpu:       0.3
 (Enter /share/apps/g09/l702.exe)
 L702 exits ... SP integral derivatives will be done elsewhere.
 Leave Link  702 at Fri Sep 18 13:25:44 2015, MaxMem=  402653184 cpu:       0.0
 (Enter /share/apps/g09/l703.exe)
 Compute integral first derivatives, UseDBF=F ICtDFT=           0.
 Integral derivatives from FoFDir, PRISM(SPDF).
 Calling FoFJK, ICntrl=      2127 FMM=F ISym2X=0 I1Cent= 0 IOpClX= 0 NMat=1 NMatS=1 NMatT=0.
 FoFCou: FMM=F IPFlag=           0 FMFlag=      100000 FMFlg1=         800
         NFxFlg=           0 DoJE=F BraDBF=F KetDBF=F FulRan=T
         Omega=  0.000000  0.000000  1.000000  0.000000  0.000000 ICntrl=    2127 IOpCl=  0
         NMat0=    1 NMatS0=    1 NMatT0=    0 NMatD0=    1 NMtDS0=    0 NMtDT0=    0
         I1Cent=           0 NGrid=           0.
 Symmetry not used in FoFCou.
 Leave Link  703 at Fri Sep 18 13:25:56 2015, MaxMem=  402653184 cpu:      25.0
 (Enter /share/apps/g09/l716.exe)
 Dipole        = 1.45469031D-02-8.83893335D-03-2.46579354D-03
 ***** Axes restored to original set *****
 -------------------------------------------------------------------
 Center     Atomic                   Forces (Hartrees/Bohr)
 Number     Number              X              Y              Z
 -------------------------------------------------------------------
      1        6          -0.000065531    0.000840555   -0.000435899
      2        1           0.000084217    0.000009077   -0.000207275
      3        1          -0.000103074    0.000096204   -0.000038444
      4        1           0.000866994    0.000079487    0.000357645
      5        6           0.001400232    0.000630621    0.000415330
      6        1          -0.000152786    0.000122608    0.000495056
      7        1           0.000888587   -0.000360024   -0.000554881
      8        6           0.000000011   -0.000929073   -0.001481662
      9        1          -0.000071787   -0.000379197   -0.000753285
     10        6          -0.000857314    0.000720409    0.000697386
     11        1           0.000261730   -0.000405959    0.000445085
     12        1          -0.000350265   -0.000200251   -0.000248062
     13        6          -0.001234718   -0.000289564   -0.000003790
     14        1          -0.000172200    0.000031586   -0.000142502
     15        1          -0.000468287    0.000845518    0.000279464
     16        1          -0.000583845   -0.000417052    0.000250321
     17        6           0.000100133   -0.000036594    0.000351077
     18        1           0.000374118   -0.000580702    0.000107963
     19        1          -0.000071994    0.000340793    0.000395348
     20        1           0.000155779   -0.000118441    0.000071128
 -------------------------------------------------------------------
 Cartesian Forces:  Max     0.001481662 RMS     0.000520642
 Leave Link  716 at Fri Sep 18 13:25:56 2015, MaxMem=  402653184 cpu:       0.0
 (Enter /share/apps/g09/l103.exe)

 GradGradGradGradGradGradGradGradGradGradGradGradGradGradGradGradGradGrad
 Berny optimization.
 Using GEDIIS/GDIIS optimizer.
[...]
 Center     Atomic      Atomic             Coordinates (Angstroms)
 Number     Number       Type             X           Y           Z
 ---------------------------------------------------------------------
      1          6           0       -2.252911   -0.890848   -0.164382
      2          1           0       -2.220846   -1.094698   -1.242205
      3          1           0       -2.870472    0.001225   -0.014019
      4          1           0       -2.769330   -1.730287    0.315346
      5          6           0       -0.839785   -0.720508    0.407205
      6          1           0       -0.903650   -0.500963    1.483791
      7          1           0       -0.317671   -1.681928    0.324453
      8          6           0        0.007436    0.375453   -0.271925
      9          1           0        0.027918    0.159327   -1.352904
     10          6           0        1.467801    0.370459    0.229164
     11          1           0        1.470817    0.508044    1.320929
     12          1           0        1.977468    1.251193   -0.185708
     13          6           0        2.281912   -0.877691   -0.132716
     14          1           0        2.290477   -1.042393   -1.217587
     15          1           0        3.322871   -0.771623    0.193827
     16          1           0        1.884685   -1.784084    0.336883
     17          6           0       -0.606314    1.772034   -0.083117
     18          1           0       -1.619328    1.837099   -0.493663
     19          1           0       -0.661049    2.033548    0.982202
     20          1           0        0.000329    2.537905   -0.580907
 ---------------------------------------------------------------------
                    Distance matrix (angstroms):
                    1          2          3          4          5
     1  C    0.000000
     2  H    1.097399   0.000000
     3  H    1.095348   1.769605   0.000000
     4  H    1.096123   1.769399   1.765459   0.000000
     5  C    1.533836   2.183552   2.195910   2.179733   0.000000
     6  H    2.165408   3.085219   2.522701   2.521361   1.100598
     7  H    2.147073   2.534035   3.076421   2.452153   1.097169
     8  C    2.593116   2.840427   2.913575   3.534042   1.542766
     9  H    2.778062   2.577163   3.196604   3.765407   2.150581
    10  C    3.948350   4.232933   4.360744   4.730099   2.558683
    11  H    4.246080   4.771457   4.570092   4.898996   2.771842
    12  H    4.741825   4.923944   5.009433   5.627821   3.489421
    13  C    4.534952   4.642508   5.228159   5.142248   3.171941
    14  H    4.666325   4.511694   5.401215   5.331485   3.541483
    15  H    5.588548   5.735796   6.244837   6.168363   4.168434
    16  H    4.262492   4.452433   5.091364   4.654375   2.925556
    17  C    3.131905   3.488316   2.875231   4.135658   2.551017
    18  H    2.819849   3.085056   2.272851   3.834481   2.821454
    19  H    3.521473   4.143293   3.162964   4.365318   2.819112
    20  H    4.123946   4.308913   3.872674   5.166405   3.507051
                    6          7          8          9         10
     6  H    0.000000
     7  H    1.755595   0.000000
     8  C    2.163497   2.166605   0.000000
     9  H    3.057881   2.514592   1.102563   0.000000
    10  C    2.820858   2.721999   1.543950   2.149599   0.000000
    11  H    2.585094   2.997937   2.167082   3.058257   1.100404
    12  H    3.762727   3.759139   2.157633   2.520964   1.098896
    13  C    3.592050   2.759281   2.600575   2.764914   1.533496
    14  H    4.218179   3.096664   2.849007   2.565466   2.183125
    15  H    4.427272   3.754898   3.539042   3.757094   2.178735
    16  H    3.276676   2.204759   2.925459   3.174871   2.197146
    17  C    2.776711   3.489883   1.537133   2.148356   2.522674
    18  H    3.144686   3.840205   2.198167   2.503324   3.493404
    19  H    2.595033   3.788840   2.183801   3.072475   2.804449
    20  H    3.783500   4.327562   2.184427   2.500874   2.739983
                   11         12         13         14         15
    11  H    0.000000
    12  H    1.754685   0.000000
    13  C    2.165922   2.151195   0.000000
    14  H    3.085411   2.534420   1.097335   0.000000
    15  H    2.517540   2.458849   1.096119   1.769532   0.000000
    16  H    2.528534   3.081333   1.095382   1.769505   1.764630
    17  C    2.807754   2.637750   3.919866   4.195166   4.688857
    18  H    3.822057   3.657193   4.766554   4.909391   5.630577
    19  H    2.643246   2.989627   4.287117   4.797082   4.935802
    20  H    3.146371   2.391838   4.131923   4.297519   4.753154
                   16         17         18         19         20
    16  H    0.000000
    17  C    4.362047   0.000000
    18  H    5.106944   1.094979   0.000000
    19  H    4.633737   1.098312   1.770612   0.000000
    20  H    4.803407   1.096525   1.766926   1.770623   0.000000
 Stoichiometry    C6H14
 Framework group  C1[X(C6H14)]
 Deg. of freedom    54
 Full point group                 C1      NOp   1
 Largest Abelian subgroup         C1      NOp   1
 Largest concise Abelian subgroup C1      NOp   1
                         Standard orientation:                         
 ---------------------------------------------------------------------
 Center     Atomic      Atomic             Coordinates (Angstroms)
 Number     Number       Type             X           Y           Z
 ---------------------------------------------------------------------
      1          6           0       -2.244559   -0.907914   -0.158789
      2          1           0       -2.222492   -1.082867   -1.241927
      3          1           0       -2.869503   -0.026682    0.021936
      4          1           0       -2.746940   -1.765129    0.304115
      5          6           0       -0.826934   -0.737851    0.401630
      6          1           0       -0.880972   -0.547511    1.484297
      7          1           0       -0.295957   -1.691194    0.287692
      8          6           0        0.001348    0.384537   -0.257403
      9          1           0        0.011924    0.197273   -1.343895
     10          6           0        1.467213    0.381697    0.227378
     11          1           0        1.481057    0.490414    1.322311
     12          1           0        1.963147    1.278406   -0.169527
     13          6           0        2.289961   -0.847807   -0.176374
     14          1           0        2.288051   -0.983691   -1.265262
     15          1           0        3.333374   -0.739440    0.141467
     16          1           0        1.907330   -1.770427    0.273324
     17          6           0       -0.624523    1.769097   -0.024904
     18          1           0       -1.642689    1.834306   -0.422477
     19          1           0       -0.669989    2.001784    1.047514
     20          1           0       -0.031377    2.554202   -0.508801
 ---------------------------------------------------------------------
 Rotational constants (GHZ):      4.6322795      2.2154012      1.6434173
 Leave Link  202 at Fri Sep 18 13:33:42 2015, MaxMem=  402653184 cpu:       0.0
 (Enter /share/apps/g09/l601.exe)
 Copying SCF densities to generalized density rwf, IOpCl= 0 IROHF=0.

 **********************************************************************

            Population analysis using the SCF density.

 **********************************************************************

 Orbital symmetries:
       Occupied  (A) (A) (A) (A) (A) (A) (A) (A) (A) (A) (A) (A)
                 (A) (A) (A) (A) (A) (A) (A) (A) (A) (A) (A) (A)
                 (A)
       Virtual   (A) (A) (A) (A) (A) (A) (A) (A) (A) (A) (A) (A)
                 (A) (A) (A) (A) (A) (A) (A) (A) (A) (A) (A) (A)
                 (A) (A) (A) (A) (A) (A) (A) (A) (A) (A) (A) (A)
                 (A) (A) (A) (A) (A) (A) (A) (A) (A) (A) (A) (A)
                 (A) (A) (A) (A) (A) (A) (A) (A) (A) (A) (A) (A)
                 (A) (A) (A) (A) (A) (A) (A) (A) (A) (A) (A) (A)
                 (A) (A) (A) (A) (A) (A) (A) (A) (A) (A) (A) (A)
                 (A) (A) (A) (A) (A) (A) (A) (A) (A)
 The electronic state is 1-A.
 Alpha  occ. eigenvalues --  -10.18105 -10.17463 -10.17418 -10.16987 -10.16967
 Alpha  occ. eigenvalues --  -10.16749  -0.80679  -0.74192  -0.70881  -0.63652
 Alpha  occ. eigenvalues --   -0.60384  -0.54788  -0.45844  -0.44059  -0.43415
 Alpha  occ. eigenvalues --   -0.41129  -0.40313  -0.37848  -0.36334  -0.35832
 Alpha  occ. eigenvalues --   -0.34531  -0.33710  -0.31325  -0.30583  -0.30356
 Alpha virt. eigenvalues --    0.08878   0.11000   0.12144   0.12861   0.15602
 Alpha virt. eigenvalues --    0.15686   0.16775   0.17332   0.17770   0.18353
 Alpha virt. eigenvalues --    0.18930   0.19581   0.22133   0.23115   0.25224
 Alpha virt. eigenvalues --    0.25517   0.26501   0.27831   0.28235   0.49850
 Alpha virt. eigenvalues --    0.50191   0.51379   0.52792   0.53883   0.58163
 Alpha virt. eigenvalues --    0.59718   0.62526   0.65096   0.66081   0.67776
 Alpha virt. eigenvalues --    0.69911   0.75227   0.76631   0.80224   0.83874
 Alpha virt. eigenvalues --    0.86642   0.88074   0.88340   0.89122   0.91011
 Alpha virt. eigenvalues --    0.92068   0.92351   0.92796   0.94253   0.96098
 Alpha virt. eigenvalues --    0.96720   0.97336   0.98692   1.00468   1.02617
 Alpha virt. eigenvalues --    1.03542   1.07267   1.25841   1.36144   1.41881
 Alpha virt. eigenvalues --    1.42534   1.55593   1.59010   1.61444   1.68041
 Alpha virt. eigenvalues --    1.72896   1.76654   1.83335   1.87476   1.89466
 Alpha virt. eigenvalues --    1.92120   1.95012   1.98249   2.01467   2.02031
 Alpha virt. eigenvalues --    2.02820   2.11795   2.14170   2.18571   2.27015
 Alpha virt. eigenvalues --    2.28556   2.30793   2.32069   2.34619   2.37625
 Alpha virt. eigenvalues --    2.42202   2.46384   2.52798   2.65189   2.68470
 Alpha virt. eigenvalues --    2.76740   2.78892   4.12034   4.21302   4.27226
 Alpha virt. eigenvalues --    4.39309   4.44482   4.59973
          Condensed to atoms (all electrons):
              1          2          3          4          5          6
     1  C    5.072728   0.376640   0.377838   0.371570   0.370252  -0.039601
     2  H    0.376640   0.580644  -0.033013  -0.031380  -0.036034   0.005347
     3  H    0.377838  -0.033013   0.573670  -0.031500  -0.032955  -0.004709
     4  H    0.371570  -0.031380  -0.031500   0.580132  -0.027797  -0.002202
     5  C    0.370252  -0.036034  -0.032955  -0.027797   4.995565   0.368978
     6  H   -0.039601   0.005347  -0.004709  -0.002202   0.368978   0.619280
     7  H   -0.038966  -0.003855   0.005058  -0.003599   0.373670  -0.038951
     8  C   -0.038982  -0.004620  -0.005105   0.004001   0.393097  -0.038934
     9  H   -0.005105   0.005840  -0.000209  -0.000015  -0.050277   0.006680
    10  C    0.004252   0.000076  -0.000008  -0.000136  -0.042973  -0.004373
    11  H    0.000028   0.000011  -0.000001   0.000000  -0.008582   0.005748
    12  H   -0.000161   0.000001   0.000000   0.000002   0.005218  -0.000051
    13  C    0.000098  -0.000017  -0.000003   0.000002  -0.004674  -0.000205
    14  H   -0.000028   0.000001   0.000000   0.000000  -0.000447   0.000055
    15  H    0.000000   0.000000   0.000000   0.000000   0.000152  -0.000020
    16  H   -0.000147   0.000012   0.000001   0.000008   0.001383   0.000225
    17  C   -0.004259  -0.000562   0.002339   0.000117  -0.050293  -0.008110
    18  H    0.002146   0.000394   0.002877  -0.000083  -0.004763  -0.000053
    19  H   -0.000301   0.000079   0.000281  -0.000023  -0.005816   0.005788
    20  H    0.000070  -0.000027  -0.000120   0.000001   0.005101  -0.000027
              7          8          9         10         11         12
     1  C   -0.038966  -0.038982  -0.005105   0.004252   0.000028  -0.000161
     2  H   -0.003855  -0.004620   0.005840   0.000076   0.000011   0.000001
     3  H    0.005058  -0.005105  -0.000209  -0.000008  -0.000001   0.000000
     4  H   -0.003599   0.004001  -0.000015  -0.000136   0.000000   0.000002
     5  C    0.373670   0.393097  -0.050277  -0.042973  -0.008582   0.005218
     6  H   -0.038951  -0.038934   0.006680  -0.004373   0.005748  -0.000051
     7  H    0.608346  -0.037588  -0.003428  -0.006008  -0.000146   0.000030
     8  C   -0.037588   4.856075   0.373780   0.390244  -0.038258  -0.037130
     9  H   -0.003428   0.373780   0.651458  -0.048315   0.006595  -0.003124
    10  C   -0.006008   0.390244  -0.048315   4.992415   0.368806   0.371197
    11  H   -0.000146  -0.038258   0.006595   0.368806   0.618753  -0.039071
    12  H    0.000030  -0.037130  -0.003124   0.371197  -0.039071   0.617650
    13  C    0.002254  -0.037882  -0.005188   0.370979  -0.039162  -0.039498
    14  H    0.000321  -0.004940   0.005924  -0.035783   0.005345  -0.003910
    15  H   -0.000126   0.003951  -0.000007  -0.027517  -0.002274  -0.003805
    16  H    0.004547  -0.004724  -0.000155  -0.033131  -0.004597   0.005168
    17  C    0.005639   0.376360  -0.047303  -0.047907  -0.003568  -0.005395
    18  H   -0.000038  -0.027858  -0.003388   0.004731  -0.000105   0.000037
    19  H   -0.000013  -0.034513   0.005936  -0.005537   0.004579  -0.000271
    20  H   -0.000175  -0.029649  -0.003184  -0.005127  -0.000244   0.005876
             13         14         15         16         17         18
     1  C    0.000098  -0.000028   0.000000  -0.000147  -0.004259   0.002146
     2  H   -0.000017   0.000001   0.000000   0.000012  -0.000562   0.000394
     3  H   -0.000003   0.000000   0.000000   0.000001   0.002339   0.002877
     4  H    0.000002   0.000000   0.000000   0.000008   0.000117  -0.000083
     5  C   -0.004674  -0.000447   0.000152   0.001383  -0.050293  -0.004763
     6  H   -0.000205   0.000055  -0.000020   0.000225  -0.008110  -0.000053
     7  H    0.002254   0.000321  -0.000126   0.004547   0.005639  -0.000038
     8  C   -0.037882  -0.004940   0.003951  -0.004724   0.376360  -0.027858
     9  H   -0.005188   0.005924  -0.000007  -0.000155  -0.047303  -0.003388
    10  C    0.370979  -0.035783  -0.027517  -0.033131  -0.047907   0.004731
    11  H   -0.039162   0.005345  -0.002274  -0.004597  -0.003568  -0.000105
    12  H   -0.039498  -0.003910  -0.003805   0.005168  -0.005395   0.000037
    13  C    5.073618   0.376721   0.371032   0.376723   0.004394  -0.000158
    14  H    0.376721   0.580300  -0.031302  -0.032968   0.000076  -0.000001
    15  H    0.371032  -0.031302   0.579717  -0.031151  -0.000143   0.000002
    16  H    0.376723  -0.032968  -0.031151   0.572639   0.000019   0.000003
    17  C    0.004394   0.000076  -0.000143   0.000019   5.119306   0.369183
    18  H   -0.000158  -0.000001   0.000002   0.000003   0.369183   0.576018
    19  H    0.000012   0.000008   0.000002   0.000001   0.371198  -0.032165
    20  H    0.000036  -0.000003  -0.000006   0.000002   0.369458  -0.030436
             19         20
     1  C   -0.000301   0.000070
     2  H    0.000079  -0.000027
     3  H    0.000281  -0.000120
     4  H   -0.000023   0.000001
     5  C   -0.005816   0.005101
     6  H    0.005788  -0.000027
     7  H   -0.000013  -0.000175
     8  C   -0.034513  -0.029649
     9  H    0.005936  -0.003184
    10  C   -0.005537  -0.005127
    11  H    0.004579  -0.000244
    12  H   -0.000271   0.005876
    13  C    0.000012   0.000036
    14  H    0.000008  -0.000003
    15  H    0.000002  -0.000006
    16  H    0.000001   0.000002
    17  C    0.371198   0.369458
    18  H   -0.032165  -0.030436
    19  H    0.585335  -0.031761
    20  H   -0.031761   0.581562
 Mulliken atomic charges:
              1
     1  C   -0.448070
     2  H    0.140465
     3  H    0.145559
     4  H    0.140903
     5  C   -0.248804
     6  H    0.125133
     7  H    0.133028
     8  C   -0.057325
     9  H    0.113488
    10  C   -0.245886
    11  H    0.126143
    12  H    0.127238
    13  C   -0.449082
    14  H    0.140629
    15  H    0.141495
    16  H    0.146143
    17  C   -0.450549
    18  H    0.143660
    19  H    0.137180
    20  H    0.138655
 Sum of Mulliken atomic charges =   0.00000
 Mulliken charges with hydrogens summed into heavy atoms:
              1
     1  C   -0.021144
     5  C    0.009356
     8  C    0.056163
    10  C    0.007495
    13  C   -0.020816
    17  C   -0.031055
 Sum of Mulliken charges with hydrogens summed into heavy atoms =   0.00000
 Electronic spatial extent (au):  <R**2>=            826.7902
 Charge=              0.0000 electrons
 Dipole moment (field-independent basis, Debye):
    X=              0.0401    Y=             -0.0259    Z=             -0.0122  Tot=              0.0492
 Quadrupole moment (field-independent basis, Debye-Ang):
   XX=            -41.8608   YY=            -41.7599   ZZ=            -41.1974
   XY=              0.1979   XZ=             -0.1090   YZ=             -0.1492
 Traceless Quadrupole moment (field-independent basis, Debye-Ang):
   XX=             -0.2548   YY=             -0.1539   ZZ=              0.4087
   XY=              0.1979   XZ=             -0.1090   YZ=             -0.1492
 Octapole moment (field-independent basis, Debye-Ang**2):
  XXX=              1.0351  YYY=             -1.4830  ZZZ=             -0.1919  XYY=             -0.0499
  XXY=              1.2561  XXZ=              0.5388  XZZ=              0.0559  YZZ=              0.0763
  YYZ=             -0.0765  XYZ=             -0.1813
 Hexadecapole moment (field-independent basis, Debye-Ang**3):
 XXXX=           -698.6515 YYYY=           -346.1766 ZZZZ=            -99.8407 XXXY=             -0.3935
 XXXZ=              0.4887 YYYX=              4.8293 YYYZ=             -3.4856 ZZZX=             -0.4575
 ZZZY=              2.2492 XXYY=           -174.6965 XXZZ=           -134.1048 YYZZ=            -74.5758
 XXYZ=             -2.3884 YYXZ=             -1.1461 ZZXY=              0.2555
 N-N= 2.560315177026D+02 E-N=-1.058985801075D+03  KE= 2.346250592518D+02
 No NMR shielding tensors so no spin-rotation constants.
 Leave Link  601 at Fri Sep 18 13:33:42 2015, MaxMem=  402653184 cpu:       0.3
 (Enter /share/apps/g09/l9999.exe)
 1\1\GINC-COMPUTE-0-8\FOpt\RB3LYP\6-31G(d)\C6H14\HETANJIN\18-Sep-2015\0
 \\#p B3LYP/6-31G(d) opt=tight int=ultrafine\\using B3LYP/6-31G(d) to d
 o opt and freq calc.\\0,1\C,-2.2529109363,-0.8908484116,-0.1643819876\
 H,-2.2208460579,-1.0946975907,-1.2422046976\H,-2.8704724993,0.00122533
 22,-0.0140189059\H,-2.7693295138,-1.7302872787,0.315346228\C,-0.839784
 8352,-0.7205076318,0.4072046102\H,-0.9036497161,-0.5009631167,1.483790
 825\H,-0.3176705706,-1.681928278,0.3244525584\C,0.0074357113,0.3754525
 623,-0.2719249954\H,0.0279177897,0.1593266986,-1.3529035564\C,1.467800
 6536,0.3704590087,0.2291639243\H,1.4708165262,0.5080439081,1.320928602
 2\H,1.9774679354,1.2511927747,-0.185708462\C,2.2819117467,-0.877690529
 ,-0.1327161505\H,2.2904774181,-1.042392975,-1.2175870748\H,3.322870724
 1,-0.7716227996,0.1938271935\H,1.8846850163,-1.7840840334,0.3368826197
 \C,-0.6063135138,1.7720342681,-0.083116683\H,-1.6193276613,1.837098978
 9,-0.4936627874\H,-0.6610493164,2.0335484444,0.9822019773\H,0.00032909
 93,2.5379046684,-0.5809072378\\Version=EM64L-G09RevA.01\State=1-A\HF=-
 237.0829911\RMSD=9.044e-09\RMSF=6.019e-07\Dipole=0.0157028,-0.0104677,
 -0.0043332\Quadrupole=-0.1844623,-0.1229743,0.3074367,0.1467414,-0.091
 4501,-0.0971832\PG=C01 [X(C6H14)]\\@


 WE MIGHT AS WELL ATTEMPT TO INTRODUCE A NEW PLANET 
 INTO THE SOLAR SYSTEM, OR TO ANNIHILATE ONE ALREADYIN EXISTENCE, 
 AS TO CREATE OR DESTROY A PARTICLE OF HYDROGEN.
 ALL THE CHANGES WE CAN PRODUCE CONSIST IN SEPARATING PARTICLES
 THAT ARE IN A STATE OF ... COMBINATION, AND JOINING 
 THOSE THAT WERE PREVIOUSLY AT A DISTANCE.

                                    -- JOHN DALTON, 1810
 Job cpu time:  0 days  0 hours 20 minutes 18.5 seconds.
 File lengths (MBytes):  RWF=     15 Int=      0 D2E=      0 Chk=      2 Scr=      1
 Normal termination of Gaussian 09 at Fri Sep 18 13:33:42 2015.
