using PM6 to do opt and freq calc.                                      
FOpt      RPM6                                                        ZDO                 
Number of atoms                            I               20
Info1-9                                    I   N=           9
          33          29           0           0           0         110
           2           8         302
Charge                                     I                0
Multiplicity                               I                1
Number of electrons                        I               38
Number of alpha electrons                  I               19
Number of beta electrons                   I               19
Number of basis functions                  I               38
Number of independent functions            I               38
Number of point charges in /Mol/           I                0
Number of translation vectors              I                0
Atomic numbers                             I   N=          20
           6           1           1           1           6           1
           6           1           1           6           1           1
           6           1           1           1           6           1
           1           1
Nuclear charges                            R   N=          20
  4.00000000E+00  1.00000000E+00  1.00000000E+00  1.00000000E+00  4.00000000E+00
  1.00000000E+00  4.00000000E+00  1.00000000E+00  1.00000000E+00  4.00000000E+00
  1.00000000E+00  1.00000000E+00  4.00000000E+00  1.00000000E+00  1.00000000E+00
  1.00000000E+00  4.00000000E+00  1.00000000E+00  1.00000000E+00  1.00000000E+00
Current cartesian coordinates              R   N=          60
  4.06322211E+00 -1.94402581E+00  2.95730656E-02  3.65094678E+00 -3.80202731E+00
 -7.81429253E-01  4.25709417E+00 -2.18575974E+00  2.07575894E+00  5.90634082E+00
 -1.34590668E+00 -6.96724618E-01  1.99829315E+00 -1.46047882E-02 -6.28807938E-01
  1.85866208E+00  1.08172359E-01 -2.73450377E+00 -5.73903461E-01 -9.04616125E-01
  4.20061636E-01 -5.86828905E-01 -7.41312936E-01  2.50357870E+00 -8.25471643E-01
 -2.94166896E+00  1.67767257E-02 -2.79749238E+00  5.80764696E-01 -7.01925421E-01
 -2.77505443E+00  4.26378349E-01 -2.78900836E+00 -2.57710396E+00  2.61899850E+00
 -2.76858762E-01 -5.33088852E+00 -3.55717108E-01  3.16229189E-01 -5.44028801E+00
 -1.67294301E-01  2.37559288E+00 -6.90523504E+00  7.19927533E-01 -4.90113309E-01
 -5.64489906E+00 -2.35130819E+00 -1.38807875E-01  2.70816811E+00  2.60459293E+00
  3.92083661E-01  1.26696523E+00  4.01310816E+00 -8.02742775E-02  2.90643352E+00
  2.59148441E+00  2.45206871E+00  4.50404437E+00  3.25884602E+00 -3.99340898E-01
Force Field                                I                0
Int Atom Types                             I   N=          20
           0           0           0           0           0           0
           0           0           0           0           0           0
           0           0           0           0           0           0
           0           0
MM charges                                 R   N=          20
  0.00000000E+00  0.00000000E+00  0.00000000E+00  0.00000000E+00  0.00000000E+00
  0.00000000E+00  0.00000000E+00  0.00000000E+00  0.00000000E+00  0.00000000E+00
  0.00000000E+00  0.00000000E+00  0.00000000E+00  0.00000000E+00  0.00000000E+00
  0.00000000E+00  0.00000000E+00  0.00000000E+00  0.00000000E+00  0.00000000E+00
Integer atomic weights                     I   N=          20
          12           1           1           1          12           1
          12           1           1          12           1           1
          12           1           1           1          12           1
           1           1
Real atomic weights                        R   N=          20
  1.20000000E+01  1.00782504E+00  1.00782504E+00  1.00782504E+00  1.20000000E+01
  1.00782504E+00  1.20000000E+01  1.00782504E+00  1.00782504E+00  1.20000000E+01
  1.00782504E+00  1.00782504E+00  1.20000000E+01  1.00782504E+00  1.00782504E+00
  1.00782504E+00  1.20000000E+01  1.00782504E+00  1.00782504E+00  1.00782504E+00
Atom fragment info                         I   N=          20
           0           0           0           0           0           0
           0           0           0           0           0           0
           0           0           0           0           0           0
           0           0
Atom residue num                           I   N=          20
           0           0           0           0           0           0
           0           0           0           0           0           0
           0           0           0           0           0           0
           0           0
Nuclear spins                              I   N=          20
           0           1           1           1           0           1
           0           1           1           0           1           1
           0           1           1           1           0           1
           1           1
Nuclear ZEff                               R   N=          20
 -3.90000000E+00 -1.00000000E+00 -1.00000000E+00 -1.00000000E+00 -3.90000000E+00
 -1.00000000E+00 -3.90000000E+00 -1.00000000E+00 -1.00000000E+00 -3.90000000E+00
 -1.00000000E+00 -1.00000000E+00 -3.90000000E+00 -1.00000000E+00 -1.00000000E+00
 -1.00000000E+00 -3.90000000E+00 -1.00000000E+00 -1.00000000E+00 -1.00000000E+00
Nuclear QMom                               R   N=          20
  0.00000000E+00  0.00000000E+00  0.00000000E+00  0.00000000E+00  0.00000000E+00
  0.00000000E+00  0.00000000E+00  0.00000000E+00  0.00000000E+00  0.00000000E+00
  0.00000000E+00  0.00000000E+00  0.00000000E+00  0.00000000E+00  0.00000000E+00
  0.00000000E+00  0.00000000E+00  0.00000000E+00  0.00000000E+00  0.00000000E+00
Nuclear GFac                               R   N=          20
  0.00000000E+00  2.79284600E+00  2.79284600E+00  2.79284600E+00  0.00000000E+00
  2.79284600E+00  0.00000000E+00  2.79284600E+00  2.79284600E+00  0.00000000E+00
  2.79284600E+00  2.79284600E+00  0.00000000E+00  2.79284600E+00  2.79284600E+00
  2.79284600E+00  0.00000000E+00  2.79284600E+00  2.79284600E+00  2.79284600E+00
MicOpt                                     I   N=          20
          -1          -1          -1          -1          -1          -1
          -1          -1          -1          -1          -1          -1
          -1          -1          -1          -1          -1          -1
          -1          -1
Number of contracted shells                I               20
Number of primitive shells                 I              120
Pure/Cartesian d shells                    I                0
Pure/Cartesian f shells                    I                0
Highest angular momentum                   I                1
Largest degree of contraction              I                6
Shell types                                I   N=          20
          -1           0           0           0          -1           0
          -1           0           0          -1           0           0
          -1           0           0           0          -1           0
           0           0
Number of primitives per shell             I   N=          20
           6           6           6           6           6           6
           6           6           6           6           6           6
           6           6           6           6           6           6
           6           6
Shell to atom map                          I   N=          20
           1           2           3           4           5           6
           7           8           9          10          11          12
          13          14          15          16          17          18
          19          20
Primitive exponents                        R   N=         120
  1.14476344E+01  3.29633588E+00  1.29653143E+00  5.92558930E-01  2.94896438E-01
  1.51447622E-01  4.39461478E+00  1.26542531E+00  4.97723458E-01  2.27476537E-01
  1.13207340E-01  5.81389949E-02  4.39461478E+00  1.26542531E+00  4.97723458E-01
  2.27476537E-01  1.13207340E-01  5.81389949E-02  4.39461478E+00  1.26542531E+00
  4.97723458E-01  2.27476537E-01  1.13207340E-01  5.81389949E-02  1.14476344E+01
  3.29633588E+00  1.29653143E+00  5.92558930E-01  2.94896438E-01  1.51447622E-01
  4.39461478E+00  1.26542531E+00  4.97723458E-01  2.27476537E-01  1.13207340E-01
  5.81389949E-02  1.14476344E+01  3.29633588E+00  1.29653143E+00  5.92558930E-01
  2.94896438E-01  1.51447622E-01  4.39461478E+00  1.26542531E+00  4.97723458E-01
  2.27476537E-01  1.13207340E-01  5.81389949E-02  4.39461478E+00  1.26542531E+00
  4.97723458E-01  2.27476537E-01  1.13207340E-01  5.81389949E-02  1.14476344E+01
  3.29633588E+00  1.29653143E+00  5.92558930E-01  2.94896438E-01  1.51447622E-01
  4.39461478E+00  1.26542531E+00  4.97723458E-01  2.27476537E-01  1.13207340E-01
  5.81389949E-02  4.39461478E+00  1.26542531E+00  4.97723458E-01  2.27476537E-01
  1.13207340E-01  5.81389949E-02  1.14476344E+01  3.29633588E+00  1.29653143E+00
  5.92558930E-01  2.94896438E-01  1.51447622E-01  4.39461478E+00  1.26542531E+00
  4.97723458E-01  2.27476537E-01  1.13207340E-01  5.81389949E-02  4.39461478E+00
  1.26542531E+00  4.97723458E-01  2.27476537E-01  1.13207340E-01  5.81389949E-02
  4.39461478E+00  1.26542531E+00  4.97723458E-01  2.27476537E-01  1.13207340E-01
  5.81389949E-02  1.14476344E+01  3.29633588E+00  1.29653143E+00  5.92558930E-01
  2.94896438E-01  1.51447622E-01  4.39461478E+00  1.26542531E+00  4.97723458E-01
  2.27476537E-01  1.13207340E-01  5.81389949E-02  4.39461478E+00  1.26542531E+00
  4.97723458E-01  2.27476537E-01  1.13207340E-01  5.81389949E-02  4.39461478E+00
  1.26542531E+00  4.97723458E-01  2.27476537E-01  1.13207340E-01  5.81389949E-02
Contraction coefficients                   R   N=         120
 -9.73739553E-03 -7.26587678E-02 -1.71615520E-01  1.28977624E-01  7.28861451E-01
  3.01331742E-01 -9.73739553E-03 -7.26587678E-02 -1.71615520E-01  1.28977624E-01
  7.28861451E-01  3.01331742E-01 -9.73739553E-03 -7.26587678E-02 -1.71615520E-01
  1.28977624E-01  7.28861451E-01  3.01331742E-01 -9.73739553E-03 -7.26587678E-02
 -1.71615520E-01  1.28977624E-01  7.28861451E-01  3.01331742E-01 -9.73739553E-03
 -7.26587678E-02 -1.71615520E-01  1.28977624E-01  7.28861451E-01  3.01331742E-01
 -9.73739553E-03 -7.26587678E-02 -1.71615520E-01  1.28977624E-01  7.28861451E-01
  3.01331742E-01 -9.73739553E-03 -7.26587678E-02 -1.71615520E-01  1.28977624E-01
  7.28861451E-01  3.01331742E-01 -9.73739553E-03 -7.26587678E-02 -1.71615520E-01
  1.28977624E-01  7.28861451E-01  3.01331742E-01 -9.73739553E-03 -7.26587678E-02
 -1.71615520E-01  1.28977624E-01  7.28861451E-01  3.01331742E-01 -9.73739553E-03
 -7.26587678E-02 -1.71615520E-01  1.28977624E-01  7.28861451E-01  3.01331742E-01
 -9.73739553E-03 -7.26587678E-02 -1.71615520E-01  1.28977624E-01  7.28861451E-01
  3.01331742E-01 -9.73739553E-03 -7.26587678E-02 -1.71615520E-01  1.28977624E-01
  7.28861451E-01  3.01331742E-01 -9.73739553E-03 -7.26587678E-02 -1.71615520E-01
  1.28977624E-01  7.28861451E-01  3.01331742E-01 -9.73739553E-03 -7.26587678E-02
 -1.71615520E-01  1.28977624E-01  7.28861451E-01  3.01331742E-01 -9.73739553E-03
 -7.26587678E-02 -1.71615520E-01  1.28977624E-01  7.28861451E-01  3.01331742E-01
 -9.73739553E-03 -7.26587678E-02 -1.71615520E-01  1.28977624E-01  7.28861451E-01
  3.01331742E-01 -9.73739553E-03 -7.26587678E-02 -1.71615520E-01  1.28977624E-01
  7.28861451E-01  3.01331742E-01 -9.73739553E-03 -7.26587678E-02 -1.71615520E-01
  1.28977624E-01  7.28861451E-01  3.01331742E-01 -9.73739553E-03 -7.26587678E-02
 -1.71615520E-01  1.28977624E-01  7.28861451E-01  3.01331742E-01 -9.73739553E-03
 -7.26587678E-02 -1.71615520E-01  1.28977624E-01  7.28861451E-01  3.01331742E-01
P(S=P) Contraction coefficients            R   N=         120
 -8.10494336E-03 -1.71547892E-02  7.36978576E-02  3.96514999E-01  4.97808488E-01
  1.17482582E-01  0.00000000E+00  0.00000000E+00  0.00000000E+00  0.00000000E+00
  0.00000000E+00  0.00000000E+00  0.00000000E+00  0.00000000E+00  0.00000000E+00
  0.00000000E+00  0.00000000E+00  0.00000000E+00  0.00000000E+00  0.00000000E+00
  0.00000000E+00  0.00000000E+00  0.00000000E+00  0.00000000E+00 -8.10494336E-03
 -1.71547892E-02  7.36978576E-02  3.96514999E-01  4.97808488E-01  1.17482582E-01
  0.00000000E+00  0.00000000E+00  0.00000000E+00  0.00000000E+00  0.00000000E+00
  0.00000000E+00 -8.10494336E-03 -1.71547892E-02  7.36978576E-02  3.96514999E-01
  4.97808488E-01  1.17482582E-01  0.00000000E+00  0.00000000E+00  0.00000000E+00
  0.00000000E+00  0.00000000E+00  0.00000000E+00  0.00000000E+00  0.00000000E+00
  0.00000000E+00  0.00000000E+00  0.00000000E+00  0.00000000E+00 -8.10494336E-03
 -1.71547892E-02  7.36978576E-02  3.96514999E-01  4.97808488E-01  1.17482582E-01
  0.00000000E+00  0.00000000E+00  0.00000000E+00  0.00000000E+00  0.00000000E+00
  0.00000000E+00  0.00000000E+00  0.00000000E+00  0.00000000E+00  0.00000000E+00
  0.00000000E+00  0.00000000E+00 -8.10494336E-03 -1.71547892E-02  7.36978576E-02
  3.96514999E-01  4.97808488E-01  1.17482582E-01  0.00000000E+00  0.00000000E+00
  0.00000000E+00  0.00000000E+00  0.00000000E+00  0.00000000E+00  0.00000000E+00
  0.00000000E+00  0.00000000E+00  0.00000000E+00  0.00000000E+00  0.00000000E+00
  0.00000000E+00  0.00000000E+00  0.00000000E+00  0.00000000E+00  0.00000000E+00
  0.00000000E+00 -8.10494336E-03 -1.71547892E-02  7.36978576E-02  3.96514999E-01
  4.97808488E-01  1.17482582E-01  0.00000000E+00  0.00000000E+00  0.00000000E+00
  0.00000000E+00  0.00000000E+00  0.00000000E+00  0.00000000E+00  0.00000000E+00
  0.00000000E+00  0.00000000E+00  0.00000000E+00  0.00000000E+00  0.00000000E+00
  0.00000000E+00  0.00000000E+00  0.00000000E+00  0.00000000E+00  0.00000000E+00
Coordinates of each shell                  R   N=          60
  4.06322211E+00 -1.94402581E+00  2.95730656E-02  3.65094678E+00 -3.80202731E+00
 -7.81429253E-01  4.25709417E+00 -2.18575974E+00  2.07575894E+00  5.90634082E+00
 -1.34590668E+00 -6.96724618E-01  1.99829315E+00 -1.46047882E-02 -6.28807938E-01
  1.85866208E+00  1.08172359E-01 -2.73450377E+00 -5.73903461E-01 -9.04616125E-01
  4.20061636E-01 -5.86828905E-01 -7.41312936E-01  2.50357870E+00 -8.25471643E-01
 -2.94166896E+00  1.67767257E-02 -2.79749238E+00  5.80764696E-01 -7.01925421E-01
 -2.77505443E+00  4.26378349E-01 -2.78900836E+00 -2.57710396E+00  2.61899850E+00
 -2.76858762E-01 -5.33088852E+00 -3.55717108E-01  3.16229189E-01 -5.44028801E+00
 -1.67294301E-01  2.37559288E+00 -6.90523504E+00  7.19927533E-01 -4.90113309E-01
 -5.64489906E+00 -2.35130819E+00 -1.38807875E-01  2.70816811E+00  2.60459293E+00
  3.92083661E-01  1.26696523E+00  4.01310816E+00 -8.02742775E-02  2.90643352E+00
  2.59148441E+00  2.45206871E+00  4.50404437E+00  3.25884602E+00 -3.99340898E-01
Constraint Structure                       R   N=          60
  4.06546552E+00 -1.96698047E+00  5.71574434E-02  3.58600200E+00 -3.85703139E+00
 -7.36001484E-01  4.25498617E+00 -2.13941856E+00  2.14736678E+00  5.92260139E+00
 -1.38233366E+00 -7.43902774E-01  2.01330250E+00 -3.17317124E-02 -6.28740537E-01
  1.92704325E+00  6.25991918E-02 -2.73312157E+00 -5.87674663E-01 -9.19474100E-01
  3.59581042E-01 -5.57189057E-01 -9.79939417E-01  2.46637242E+00 -9.21782734E-01
 -2.88193194E+00 -3.35260770E-01 -2.82051944E+00  7.21092712E-01 -5.09347774E-01
 -2.76861886E+00  9.38198268E-01 -2.60365903E+00 -2.68719903E+00  2.63050514E+00
  3.65403907E-01 -5.36469695E+00 -4.19792499E-01  2.32762915E-01 -5.48278999E+00
 -6.52591762E-01  2.32126742E+00 -6.91819486E+00  8.54231278E-01 -3.92996130E-01
 -5.62264353E+00 -2.29536337E+00 -6.87159261E-01  2.76056974E+00  2.59860261E+00
  3.50061945E-01  1.43807921E+00  4.06349895E+00 -3.75710050E-01  2.73954108E+00
  2.64127234E+00  2.45478755E+00  4.69148473E+00  3.10800568E+00 -3.16237227E-01
Num ILSW                                   I              100
ILSW                                       I   N=         100
           0           0           0           0           2           0
           0           0           0           0           0          -1
           0           0           0           0           0           0
           0           0           0           0           1           0
           1           0           0           0           0           0
           0           0      100000           0          -1           0
           0           0           0           0           0           0
           0           0           0          40           0           0
           0           0           1           0           0           0
           0           0           4          40           0           0
           0           0           0           0           0           0
           0           0           0           0           0           0
           0           0           0           0           0           0
           0           0           0           0           0           0
           0           0           0           0           0           0
           0           0           0           0           0           0
           0           0           0           0
Num RLSW                                   I               40
RLSW                                       R   N=          40
  1.00000000E+00  1.00000000E+00  1.00000000E+00  1.00000000E+00  1.00000000E+00
  0.00000000E+00  0.00000000E+00  1.00000000E+00  0.00000000E+00  0.00000000E+00
  0.00000000E+00  0.00000000E+00  1.00000000E+00  0.00000000E+00  0.00000000E+00
  0.00000000E+00  0.00000000E+00  1.00000000E+00  0.00000000E+00  0.00000000E+00
  0.00000000E+00  0.00000000E+00  1.00000000E+00  0.00000000E+00  0.00000000E+00
  0.00000000E+00  0.00000000E+00  1.00000000E+00  0.00000000E+00  0.00000000E+00
  0.00000000E+00  0.00000000E+00  0.00000000E+00  0.00000000E+00  0.00000000E+00
  0.00000000E+00  0.00000000E+00  0.00000000E+00  1.00000000E+00  1.00000000E+00
MxBond                                     I                4
NBond                                      I   N=          20
           4           1           1           1           4           1
           4           1           1           4           1           1
           4           1           1           1           4           1
           1           1
IBond                                      I   N=          80
           2           3           4           5           1           0
           0           0           1           0           0           0
           1           0           0           0           1           6
           7          17           5           0           0           0
           5           8           9          10           7           0
           0           0           7           0           0           0
           7          11          12          13          10           0
           0           0          10           0           0           0
          10          14          15          16          13           0
           0           0          13           0           0           0
          13           0           0           0           5          18
          19          20          17           0           0           0
          17           0           0           0          17           0
           0           0
RBond                                      R   N=          80
  1.00000000E+00  1.00000000E+00  1.00000000E+00  1.00000000E+00  1.00000000E+00
  0.00000000E+00  0.00000000E+00  0.00000000E+00  1.00000000E+00  0.00000000E+00
  0.00000000E+00  0.00000000E+00  1.00000000E+00  0.00000000E+00  0.00000000E+00
  0.00000000E+00  1.00000000E+00  1.00000000E+00  1.00000000E+00  1.00000000E+00
  1.00000000E+00  0.00000000E+00  0.00000000E+00  0.00000000E+00  1.00000000E+00
  1.00000000E+00  1.00000000E+00  1.00000000E+00  1.00000000E+00  0.00000000E+00
  0.00000000E+00  0.00000000E+00  1.00000000E+00  0.00000000E+00  0.00000000E+00
  0.00000000E+00  1.00000000E+00  1.00000000E+00  1.00000000E+00  1.00000000E+00
  1.00000000E+00  0.00000000E+00  0.00000000E+00  0.00000000E+00  1.00000000E+00
  0.00000000E+00  0.00000000E+00  0.00000000E+00  1.00000000E+00  1.00000000E+00
  1.00000000E+00  1.00000000E+00  1.00000000E+00  0.00000000E+00  0.00000000E+00
  0.00000000E+00  1.00000000E+00  0.00000000E+00  0.00000000E+00  0.00000000E+00
  1.00000000E+00  0.00000000E+00  0.00000000E+00  0.00000000E+00  1.00000000E+00
  1.00000000E+00  1.00000000E+00  1.00000000E+00  1.00000000E+00  0.00000000E+00
  0.00000000E+00  0.00000000E+00  1.00000000E+00  0.00000000E+00  0.00000000E+00
  0.00000000E+00  1.00000000E+00  0.00000000E+00  0.00000000E+00  0.00000000E+00
Virial Ratio                               R      9.989615297384973E-01
SCF Energy                                 R     -5.839150486085032E-02
Total Energy                               R     -5.839150486085032E-02
RMS Force                                  R      4.972726949516235E-06
RMS Density                                R      6.506370417218109E-09
External E-field                           R   N=          35
  0.00000000E+00  0.00000000E+00  0.00000000E+00  0.00000000E+00  0.00000000E+00
  0.00000000E+00  0.00000000E+00  0.00000000E+00  0.00000000E+00  0.00000000E+00
  0.00000000E+00  0.00000000E+00  0.00000000E+00  0.00000000E+00  0.00000000E+00
  0.00000000E+00  0.00000000E+00  0.00000000E+00  0.00000000E+00  0.00000000E+00
  0.00000000E+00  0.00000000E+00  0.00000000E+00  0.00000000E+00  0.00000000E+00
  0.00000000E+00  0.00000000E+00  0.00000000E+00  0.00000000E+00  0.00000000E+00
  0.00000000E+00  0.00000000E+00  0.00000000E+00  0.00000000E+00  0.00000000E+00
IOpCl                                      I                0
IROHF                                      I                0
Alpha Orbital Energies                     R   N=          38
 -1.06231578E+00 -9.90360637E-01 -8.84159767E-01 -8.63255024E-01 -7.50680411E-01
 -7.10080646E-01 -5.88115225E-01 -5.57236696E-01 -5.49030217E-01 -5.22514119E-01
 -4.98700481E-01 -4.82093465E-01 -4.80228075E-01 -4.62647367E-01 -4.46769448E-01
 -4.29571608E-01 -4.11622776E-01 -4.09278296E-01 -4.04718746E-01  1.53180440E-01
  1.56865297E-01  1.69693511E-01  1.75440392E-01  1.85511712E-01  2.07825985E-01
  2.17698309E-01  2.20766844E-01  2.22539145E-01  2.22889913E-01  2.24309344E-01
  2.25109791E-01  2.34849550E-01  2.36212254E-01  2.45048606E-01  2.50281977E-01
  2.56447500E-01  2.58053122E-01  2.62110830E-01
Alpha MO coefficients                      R   N=        1444
  2.88384968E-01 -7.56453141E-02  6.41710609E-02 -1.23881789E-02  1.19086245E-01
  1.24359592E-01  1.15085977E-01  4.55097454E-01 -2.95839403E-02 -3.59892071E-03
  4.76064872E-02  1.87575139E-01  4.15441935E-01  3.58208379E-02  5.50795864E-02
 -4.53237947E-02  1.75337469E-01  1.71354791E-01  3.34769087E-01  5.07381371E-02
 -4.03700393E-02  3.50715067E-02  1.41756169E-01  1.47264664E-01  2.03720768E-01
  6.86532879E-02  1.37956253E-02 -1.68542859E-02  8.78062477E-02  7.72462331E-02
  8.73387315E-02  3.04394044E-01 -3.47487625E-02 -9.13715799E-02 -2.61231708E-02
  1.33064684E-01  1.30851193E-01  1.20099188E-01 -3.08113952E-01  3.00773078E-02
 -5.30704833E-02  1.13667423E-02 -1.22874992E-01 -1.32187644E-01 -1.39857209E-01
 -2.76864985E-01 -1.14394784E-01 -3.90437909E-03 -2.57624750E-02 -1.04406357E-01
  1.18848505E-01 -1.83890964E-01  2.31591077E-02 -1.28777419E-02  4.92266151E-02
  5.53077561E-02  4.30180028E-01 -9.51925313E-02 -4.40076267E-02  4.17547560E-02
  1.74688754E-01  1.69393928E-01  4.62519238E-01  7.89312313E-02  2.62552831E-02
 -3.00323788E-02  1.97714215E-01  1.96547072E-01  1.98346777E-01 -2.47511300E-01
 -1.71024867E-02  6.21145539E-02  1.79077629E-02 -8.27121145E-02 -1.07127879E-01
 -1.17353154E-01 -4.87487542E-01 -8.53593342E-03  7.28074660E-02  7.04807261E-03
 -2.59533499E-01 -2.21956670E-01 -2.14089034E-01  2.39359824E-03 -6.06724944E-02
  2.82352579E-01  1.84240675E-02  2.67572572E-03 -5.44623402E-02 -1.80785537E-02
  8.68333105E-02  1.35885511E-03 -1.79557115E-02 -7.49868899E-02  2.25450301E-02
  2.96639792E-02  3.96985668E-02 -5.42322539E-03  1.09553007E-02  4.41276001E-02
 -6.13771793E-02  6.68595519E-03  1.14454062E-02 -2.66838158E-03 -2.92081018E-02
 -2.71148662E-02 -3.51737051E-02  5.32422700E-01 -2.18666268E-02  6.80159763E-02
  8.47776722E-04  2.77867464E-01  2.39797070E-01  2.42509473E-01 -2.44916665E-01
 -7.72005159E-02 -1.22786669E-02 -1.22754208E-03 -9.50170731E-02 -1.14712023E-01
 -1.52578749E-01  5.49259041E-02 -2.37326742E-01 -6.88677440E-02  6.54097428E-03
  2.75965835E-02  4.67373261E-01  5.60509028E-03 -3.99883170E-04 -2.25566749E-02
  1.93227183E-01  2.08006965E-01  8.42760368E-02  2.57842865E-01 -3.70871235E-02
  1.36662270E-03  4.04069999E-02  2.91488944E-02 -4.41579544E-01  9.44022576E-02
 -2.43028152E-03 -8.01148815E-03 -2.06539208E-01 -2.39699290E-01 -2.04737099E-01
 -2.31971663E-01 -7.06909285E-02 -2.89468743E-02 -2.85925890E-03 -8.68732570E-02
 -1.10286764E-01 -1.45434821E-01  1.82371134E-01  1.37385958E-01 -6.53467537E-02
  1.14716042E-02  9.79458911E-02  1.00759200E-01  1.42489201E-01 -1.89155323E-01
  9.73832916E-02  3.95337675E-02 -3.54352293E-02 -5.86033736E-02 -2.18050527E-01
 -1.79970075E-01  1.36528790E-01 -9.85830714E-02 -1.50600035E-01 -1.53707007E-01
  4.63870238E-01  3.40285480E-02  1.63845276E-01 -1.40492159E-01  2.84830817E-01
  2.90591635E-01 -2.78193485E-01  2.02823398E-01  1.26853530E-01 -1.24964447E-01
 -2.01427638E-01 -1.51548988E-01 -2.02792598E-01  3.82773822E-02  2.74188433E-02
  7.98265986E-02  6.86132749E-03  5.18136410E-02  2.15426787E-02  4.60737978E-02
 -1.44155464E-01 -1.46511822E-01  1.56625702E-01 -1.49904238E-01 -1.01780553E-01
 -1.79912648E-01 -8.89715790E-02  4.42341467E-01  4.94010400E-03  2.64840178E-02
 -2.45556578E-01  3.52259114E-01 -2.42393479E-01  1.53206878E-01  1.21881508E-01
 -2.21707119E-01 -2.44423585E-01 -1.71393736E-01  6.50380676E-02 -4.51125791E-02
  9.90576757E-02 -1.41811242E-01  1.17167809E-01  6.29501277E-02  2.85834036E-02
 -4.35130622E-02  4.37378499E-02 -5.68179739E-02 -2.00478646E-02  6.00423555E-02
 -2.60253083E-03 -1.81136941E-01 -6.43747374E-02 -2.01153028E-01 -1.84654776E-01
 -1.11740951E-01 -2.02194510E-01 -1.15533630E-01  7.39819184E-03 -5.42838807E-02
  1.00522671E-01  1.96573631E-01 -1.06329658E-01  1.22581489E-01 -5.90823290E-02
  8.91779385E-02 -1.90056866E-02  6.10341285E-02  2.93315131E-01 -1.58261491E-01
 -3.80759037E-02  1.77455707E-01  2.86701081E-01  2.52100156E-01  1.67415722E-01
 -2.57000139E-01  1.49310293E-02 -1.83182299E-02  3.39255821E-01  2.03373249E-01
 -1.50639905E-01  2.53532135E-01  6.62736618E-03 -4.17947953E-02  2.42958012E-01
  1.50289755E-01  1.20729354E-01  6.93135112E-02 -1.73074337E-01 -6.71251470E-02
 -1.58840582E-01 -2.31941027E-01  1.19534274E-01 -6.90302890E-02  4.13537278E-02
 -2.03760947E-01  1.26025670E-02  2.29070397E-01  3.18065518E-02 -2.28125808E-01
  1.51385372E-02 -1.35765916E-01  2.07481308E-01 -1.84167604E-02  9.83496310E-02
  1.46168202E-01 -2.59116912E-01  1.67265886E-01  2.68520785E-02 -2.64428769E-01
  1.19280425E-01  1.06143152E-01  9.13338663E-02 -6.12523283E-02  3.55920967E-03
  1.11497520E-01 -1.47128153E-04  3.85909261E-01 -2.59405871E-01  6.54886123E-02
 -3.83375774E-03  1.74212163E-01  1.61732978E-02  3.48421550E-01  2.29502352E-01
 -1.79886233E-01 -8.36860782E-02 -2.33982368E-02  3.75139763E-02  3.39393039E-02
 -2.68629726E-01  3.25017903E-02 -1.89686196E-01  9.25370798E-02 -2.93037323E-02
  2.58224117E-02  4.32517637E-01  8.21436202E-02 -3.06404543E-01  1.02207208E-02
  6.97571671E-02  6.61277454E-02  3.26584019E-01  6.18803647E-02  1.46705053E-01
 -8.52137162E-02 -1.58498722E-02 -1.54253949E-01 -7.17014690E-02  1.20449193E-01
  6.98232614E-02  2.77970873E-02  8.28609610E-02 -1.21204338E-01 -1.92524088E-01
  6.75746917E-03  4.24873450E-02 -1.16631247E-01 -1.71706956E-02  2.31767388E-01
 -9.61872593E-02 -1.01343085E-01 -9.03017108E-02 -1.37793096E-01  4.67171458E-02
 -1.62436468E-02  3.17364365E-01 -3.35820733E-01  4.21121525E-02 -3.29622295E-01
  4.44648529E-02  9.85993555E-02 -2.53031453E-02 -2.81329219E-01  1.07039409E-02
 -2.28319279E-01  8.75722496E-02 -1.87026719E-01 -1.25546216E-01 -7.79318249E-03
  1.55498252E-01 -2.68532746E-01 -7.46989627E-02  2.99408438E-02  3.08096609E-03
  6.40302326E-02 -2.90978161E-01  1.29712132E-01  7.35248875E-02  1.76245165E-01
  1.30541950E-02 -2.35441781E-01  2.00781054E-01  6.56236401E-02 -5.19622569E-02
  1.30892750E-01 -1.16821196E-02  3.12393427E-02  4.19047379E-01 -4.57777783E-03
  1.83630071E-02  1.33370769E-01 -2.89512619E-01  9.09631819E-03  3.01306770E-01
  1.48978337E-01  3.10396328E-02 -7.24840740E-02  4.37549682E-02  2.11505453E-01
 -1.44040948E-02  3.78966668E-01  1.37994408E-01  6.63267430E-03 -1.53099800E-01
  1.04552426E-02  2.67076940E-01 -5.85142685E-02 -2.64060217E-02  1.82226371E-01
 -3.28979419E-02  7.36631375E-03  1.23476760E-01  1.98166537E-02 -6.82818822E-02
  1.81506192E-01  1.81563173E-01  7.62731131E-02 -7.52224800E-02  2.74248887E-02
  1.00077633E-01 -1.31778253E-01  5.46968938E-02  1.88438160E-02 -1.89154823E-02
 -3.56691251E-01  2.04634869E-01 -3.01259590E-01 -1.96712611E-01  3.53319465E-01
 -6.44498475E-02 -1.60825002E-02 -7.44026830E-03 -2.80329529E-03 -3.00275933E-01
  4.53288859E-02 -2.19625246E-01  7.68044836E-02 -6.66284130E-04 -1.79068526E-01
 -7.23698275E-02  5.41414268E-01 -8.09712233E-02  3.80734727E-01 -2.69700002E-01
  1.12635866E-02 -1.07253249E-02  5.85625848E-02 -3.03206983E-04  8.34533385E-03
 -2.52014282E-02  3.75646398E-03 -1.02231837E-01 -6.75598064E-02 -7.05020525E-02
  7.01999806E-02  8.58065155E-03 -6.21884543E-02 -1.18920588E-02  1.93811874E-02
 -9.37935634E-03 -4.46156773E-03  5.89884234E-03  9.63199573E-02  5.81605273E-02
  9.82998012E-02  7.44840116E-02 -5.78374344E-02 -6.36163785E-02  6.09250628E-03
  1.02157613E-01  8.27500321E-02 -4.56545692E-01  6.77163849E-02 -3.18125911E-01