 Entering Gaussian System, Link 0=/share/apps/g09/g09
 Input=C6H14_2_02_1_opt_PM6.gjf
 Output=C6H14_2_02_1_opt_PM6.log
 Initial command:
 /share/apps/g09/l1.exe /state/partition1/Gau-6006.inp -scrdir=/state/partition1/
 Entering Link 1 = /share/apps/g09/l1.exe PID=      6009.
  
 Copyright (c) 1988,1990,1992,1993,1995,1998,2003,2009, Gaussian, Inc.
                  All Rights Reserved.
  
 This is part of the Gaussian(R) 09 program.  It is based on
 the Gaussian(R) 03 system (copyright 2003, Gaussian, Inc.),
 the Gaussian(R) 98 system (copyright 1998, Gaussian, Inc.),
 the Gaussian(R) 94 system (copyright 1995, Gaussian, Inc.),
 the Gaussian 92(TM) system (copyright 1992, Gaussian, Inc.),
 the Gaussian 90(TM) system (copyright 1990, Gaussian, Inc.),
 the Gaussian 88(TM) system (copyright 1988, Gaussian, Inc.),
 the Gaussian 86(TM) system (copyright 1986, Carnegie Mellon
 University), and the Gaussian 82(TM) system (copyright 1983,
 Carnegie Mellon University). Gaussian is a federally registered
 trademark of Gaussian, Inc.
  
 This software contains proprietary and confidential information,
 including trade secrets, belonging to Gaussian, Inc.
  
 This software is provided under written license and may be
 used, copied, transmitted, or stored only in accord with that
 written license.
  
 The following legend is applicable only to US Government
 contracts under FAR:
  
                    RESTRICTED RIGHTS LEGEND
  
 Use, reproduction and disclosure by the US Government is
 subject to restrictions as set forth in subparagraphs (a)
 and (c) of the Commercial Computer Software - Restricted
 Rights clause in FAR 52.227-19.
  
 Gaussian, Inc.
 340 Quinnipiac St., Bldg. 40, Wallingford CT 06492
  
  
 ---------------------------------------------------------------
 Warning -- This program may not be used in any manner that
 competes with the business of Gaussian, Inc. or will provide
 assistance to any competitor of Gaussian, Inc.  The licensee
 of this program is prohibited from giving any competitor of
 Gaussian, Inc. access to this program.  By using this program,
 the user acknowledges that Gaussian, Inc. is engaged in the
 business of creating and licensing software in the field of
 computational chemistry and represents and warrants to the
 licensee that it is not a competitor of Gaussian, Inc. and that
 it will not use this program in any manner prohibited above.
 ---------------------------------------------------------------
  

 Cite this work as:
 Gaussian 09, Revision A.01,
 M. J. Frisch, G. W. Trucks, H. B. Schlegel, G. E. Scuseria, 
 M. A. Robb, J. R. Cheeseman, G. Scalmani, V. Barone, B. Mennucci, 
 G. A. Petersson, H. Nakatsuji, M. Caricato, X. Li, H. P. Hratchian, 
 A. F. Izmaylov, J. Bloino, G. Zheng, J. L. Sonnenberg, M. Hada, 
 M. Ehara, K. Toyota, R. Fukuda, J. Hasegawa, M. Ishida, T. Nakajima, 
 Y. Honda, O. Kitao, H. Nakai, T. Vreven, J. A. Montgomery, Jr., 
 J. E. Peralta, F. Ogliaro, M. Bearpark, J. J. Heyd, E. Brothers, 
 K. N. Kudin, V. N. Staroverov, R. Kobayashi, J. Normand, 
 K. Raghavachari, A. Rendell, J. C. Burant, S. S. Iyengar, J. Tomasi, 
 M. Cossi, N. Rega, J. M. Millam, M. Klene, J. E. Knox, J. B. Cross, 
 V. Bakken, C. Adamo, J. Jaramillo, R. Gomperts, R. E. Stratmann, 
 O. Yazyev, A. J. Austin, R. Cammi, C. Pomelli, J. W. Ochterski, 
 R. L. Martin, K. Morokuma, V. G. Zakrzewski, G. A. Voth, 
 P. Salvador, J. J. Dannenberg, S. Dapprich, A. D. Daniels, 
 O. Farkas, J. B. Foresman, J. V. Ortiz, J. Cioslowski, 
 and D. J. Fox, Gaussian, Inc., Wallingford CT, 2009.
 
 ******************************************
 Gaussian 09:  EM64L-G09RevA.01  8-May-2009
                14-Sep-2015 
 ******************************************
 %mem=3GB
 %nprocshared=2
 Will use up to    2 processors via shared memory.
 %chk=C6H14_2_02_1_opt_PM6.chk
 ----------
 #p PM6 opt
 ----------
 1/14=-1,18=20,19=15,26=1,38=1/1,3;
 2/9=110,12=2,17=6,18=5,40=1/2;
 3/5=2,16=1,25=1,41=3900000,71=1/1,2,3;
 4/35=1/1;
 5/5=2,35=1,38=5/2;
 6/7=2,8=2,9=2,10=2,28=1/1;
 7//1,2,3,16;
 1/14=-1,18=20,19=15/3(2);
 2/9=110/2;
 99//99;
 2/9=110/2;
 3/5=2,16=1,25=1,41=3900000,71=1,135=20/1,2,3;
 4/5=5,16=3,35=1/1;
 5/5=2,35=1,38=5/2;
 7//1,2,3,16;
 1/14=-1,18=20,19=15/3(-5);
 2/9=110/2;
 6/7=2,8=2,9=2,10=2,19=2,28=1/1;
 99/9=1/99;
 Leave Link    1 at Mon Sep 14 19:12:02 2015, MaxMem=  402653184 cpu:       0.0
 (Enter /share/apps/g09/l101.exe)
 ----------------------------------
 using PM6 to do opt and freq calc.
 ----------------------------------
 Symbolic Z-matrix:
 Charge =  0 Multiplicity = 1
 C                     2.1578   -0.3186    0.559 
 H                     2.0694   -1.4101    0.7632 
 H                     2.1672    0.2274    1.5304 
 H                     3.1292   -0.1451    0.0418 
 C                     0.991     0.158    -0.3192 
 H                     1.0414   -0.4177   -1.2735 
 C                    -0.3585   -0.1537    0.3666 
 H                    -0.4404    0.4329    1.3118 
 H                    -0.3709   -1.2364    0.6359 
 C                    -1.5916    0.1269   -0.5063 
 H                    -1.4775   -0.3812   -1.4917 
 H                    -1.6894    1.2223   -0.6816 
 C                    -2.8829   -0.3617    0.1457 
 H                    -3.0303    0.1325    1.1329 
 H                    -3.7485   -0.1149   -0.5099 
 H                    -2.8503   -1.4656    0.2907 
 C                     1.1619    1.6473   -0.6581 
 H                     0.4094    1.967    -1.4129 
 H                     1.0464    2.274     0.2557 
 H                     2.1703    1.8331   -1.0936 
 
 NAtoms=     20 NQM=     20 NQMF=      0 NMic=      0 NMicF=      0 NTot=     20.
                    Isotopes and Nuclear Properties:
 (Nuclear quadrupole moments (NQMom) in fm**2, nuclear magnetic moments (NMagM)
  in nuclear magnetons)

  Atom         1           2           3           4           5           6           7           8           9          10
 IAtWgt=          12           1           1           1          12           1          12           1           1          12
 AtmWgt=  12.0000000   1.0078250   1.0078250   1.0078250  12.0000000   1.0078250  12.0000000   1.0078250   1.0078250  12.0000000
 NucSpn=           0           1           1           1           0           1           0           1           1           0
 AtZEff=   0.0000000   0.0000000   0.0000000   0.0000000   0.0000000   0.0000000   0.0000000   0.0000000   0.0000000   0.0000000
 NQMom=    0.0000000   0.0000000   0.0000000   0.0000000   0.0000000   0.0000000   0.0000000   0.0000000   0.0000000   0.0000000
 NMagM=    0.0000000   2.7928460   2.7928460   2.7928460   0.0000000   2.7928460   0.0000000   2.7928460   2.7928460   0.0000000

  Atom        11          12          13          14          15          16          17          18          19          20
 IAtWgt=           1           1          12           1           1           1          12           1           1           1
 AtmWgt=   1.0078250   1.0078250  12.0000000   1.0078250   1.0078250   1.0078250  12.0000000   1.0078250   1.0078250   1.0078250
 NucSpn=           1           1           0           1           1           1           0           1           1           1
 AtZEff=   0.0000000   0.0000000   0.0000000   0.0000000   0.0000000   0.0000000   0.0000000   0.0000000   0.0000000   0.0000000
 NQMom=    0.0000000   0.0000000   0.0000000   0.0000000   0.0000000   0.0000000   0.0000000   0.0000000   0.0000000   0.0000000
 NMagM=    2.7928460   2.7928460   0.0000000   2.7928460   2.7928460   2.7928460   0.0000000   2.7928460   2.7928460   2.7928460
 Leave Link  101 at Mon Sep 14 19:12:04 2015, MaxMem=  402653184 cpu:       0.2
 (Enter /share/apps/g09/l103.exe)

 GradGradGradGradGradGradGradGradGradGradGradGradGradGradGradGradGradGrad
 Berny optimization.
 Initialization pass.
                           ----------------------------
                           !    Initial Parameters    !
                           ! (Angstroms and Degrees)  !
 --------------------------                            --------------------------
 ! Name  Definition              Value          Derivative Info.                !
 --------------------------------------------------------------------------------
 ! R1    R(1,2)                  1.1139         estimate D2E/DX2                !
 ! R2    R(1,3)                  1.1144         estimate D2E/DX2                !
 ! R3    R(1,4)                  1.1141         estimate D2E/DX2                !
 ! R4    R(1,5)                  1.5362         estimate D2E/DX2                !
 ! R5    R(5,6)                  1.1156         estimate D2E/DX2                !
 ! R6    R(5,7)                  1.5455         estimate D2E/DX2                !
 ! R7    R(5,17)                 1.5369         estimate D2E/DX2                !
 ! R8    R(7,8)                  1.1154         estimate D2E/DX2                !
 ! R9    R(7,9)                  1.1158         estimate D2E/DX2                !
 ! R10   R(7,10)                 1.5366         estimate D2E/DX2                !
 ! R11   R(10,11)                1.1145         estimate D2E/DX2                !
 ! R12   R(10,12)                1.1136         estimate D2E/DX2                !
 ! R13   R(10,13)                1.5269         estimate D2E/DX2                !
 ! R14   R(13,14)                1.1138         estimate D2E/DX2                !
 ! R15   R(13,15)                1.1135         estimate D2E/DX2                !
 ! R16   R(13,16)                1.1139         estimate D2E/DX2                !
 ! R17   R(17,18)                1.1127         estimate D2E/DX2                !
 ! R18   R(17,19)                1.1141         estimate D2E/DX2                !
 ! R19   R(17,20)                1.114          estimate D2E/DX2                !
 ! A1    A(2,1,3)              108.7213         estimate D2E/DX2                !
 ! A2    A(2,1,4)              107.8716         estimate D2E/DX2                !
 ! A3    A(2,1,5)              110.3968         estimate D2E/DX2                !
 ! A4    A(3,1,4)              108.7243         estimate D2E/DX2                !
 ! A5    A(3,1,5)              110.6545         estimate D2E/DX2                !
 ! A6    A(4,1,5)              110.3991         estimate D2E/DX2                !
 ! A7    A(1,5,6)              107.1333         estimate D2E/DX2                !
 ! A8    A(1,5,7)              110.3022         estimate D2E/DX2                !
 ! A9    A(1,5,17)             110.0136         estimate D2E/DX2                !
 ! A10   A(6,5,7)              108.357          estimate D2E/DX2                !
 ! A11   A(6,5,17)             107.8424         estimate D2E/DX2                !
 ! A12   A(7,5,17)             112.9778         estimate D2E/DX2                !
 ! A13   A(5,7,8)              109.5154         estimate D2E/DX2                !
 ! A14   A(5,7,9)              108.2105         estimate D2E/DX2                !
 ! A15   A(5,7,10)             114.3177         estimate D2E/DX2                !
 ! A16   A(8,7,9)              107.7563         estimate D2E/DX2                !
 ! A17   A(8,7,10)             109.0511         estimate D2E/DX2                !
 ! A18   A(9,7,10)             107.7814         estimate D2E/DX2                !
 ! A19   A(7,10,11)            109.6846         estimate D2E/DX2                !
 ! A20   A(7,10,12)            109.847          estimate D2E/DX2                !
 ! A21   A(7,10,13)            112.1888         estimate D2E/DX2                !
 ! A22   A(11,10,12)           108.5562         estimate D2E/DX2                !
 ! A23   A(11,10,13)           108.5565         estimate D2E/DX2                !
 ! A24   A(12,10,13)           107.9212         estimate D2E/DX2                !
 ! A25   A(10,13,14)           110.3909         estimate D2E/DX2                !
 ! A26   A(10,13,15)           109.5774         estimate D2E/DX2                !
 ! A27   A(10,13,16)           110.3638         estimate D2E/DX2                !
 ! A28   A(14,13,15)           108.7004         estimate D2E/DX2                !
 ! A29   A(14,13,16)           109.1616         estimate D2E/DX2                !
 ! A30   A(15,13,16)           108.6052         estimate D2E/DX2                !
 ! A31   A(5,17,18)            110.6579         estimate D2E/DX2                !
 ! A32   A(5,17,19)            110.6535         estimate D2E/DX2                !
 ! A33   A(5,17,20)            110.394          estimate D2E/DX2                !
 ! A34   A(18,17,19)           108.945          estimate D2E/DX2                !
 ! A35   A(18,17,20)           107.4004         estimate D2E/DX2                !
 ! A36   A(19,17,20)           108.7039         estimate D2E/DX2                !
 ! D1    D(2,1,5,6)            -59.9957         estimate D2E/DX2                !
 ! D2    D(2,1,5,7)             57.743          estimate D2E/DX2                !
 ! D3    D(2,1,5,17)          -176.9655         estimate D2E/DX2                !
 ! D4    D(3,1,5,6)            179.5984         estimate D2E/DX2                !
 ! D5    D(3,1,5,7)            -62.663          estimate D2E/DX2                !
 ! D6    D(3,1,5,17)            62.6285         estimate D2E/DX2                !
 ! D7    D(4,1,5,6)             59.1871         estimate D2E/DX2                !
 ! D8    D(4,1,5,7)            176.9258         estimate D2E/DX2                !
 ! D9    D(4,1,5,17)           -57.7828         estimate D2E/DX2                !
 ! D10   D(1,5,7,8)             64.4395         estimate D2E/DX2                !
 ! D11   D(1,5,7,9)            -52.7682         estimate D2E/DX2                !
 ! D12   D(1,5,7,10)          -172.8645         estimate D2E/DX2                !
 ! D13   D(6,5,7,8)           -178.5786         estimate D2E/DX2                !
 ! D14   D(6,5,7,9)             64.2138         estimate D2E/DX2                !
 ! D15   D(6,5,7,10)           -55.8825         estimate D2E/DX2                !
 ! D16   D(17,5,7,8)           -59.1494         estimate D2E/DX2                !
 ! D17   D(17,5,7,9)          -176.357          estimate D2E/DX2                !
 ! D18   D(17,5,7,10)           63.5467         estimate D2E/DX2                !
 ! D19   D(1,5,17,18)          171.6342         estimate D2E/DX2                !
 ! D20   D(1,5,17,19)          -67.5074         estimate D2E/DX2                !
 ! D21   D(1,5,17,20)           52.8743         estimate D2E/DX2                !
 ! D22   D(6,5,17,18)           55.1076         estimate D2E/DX2                !
 ! D23   D(6,5,17,19)          175.966          estimate D2E/DX2                !
 ! D24   D(6,5,17,20)          -63.6523         estimate D2E/DX2                !
 ! D25   D(7,5,17,18)          -64.6179         estimate D2E/DX2                !
 ! D26   D(7,5,17,19)           56.2405         estimate D2E/DX2                !
 ! D27   D(7,5,17,20)          176.6222         estimate D2E/DX2                !
 ! D28   D(5,7,10,11)           51.9808         estimate D2E/DX2                !
 ! D29   D(5,7,10,12)          -67.2584         estimate D2E/DX2                !
 ! D30   D(5,7,10,13)          172.707          estimate D2E/DX2                !
 ! D31   D(8,7,10,11)          174.9287         estimate D2E/DX2                !
 ! D32   D(8,7,10,12)           55.6895         estimate D2E/DX2                !
 ! D33   D(8,7,10,13)          -64.3451         estimate D2E/DX2                !
 ! D34   D(9,7,10,11)          -68.3548         estimate D2E/DX2                !
 ! D35   D(9,7,10,12)          172.406          estimate D2E/DX2                !
 ! D36   D(9,7,10,13)           52.3714         estimate D2E/DX2                !
 ! D37   D(7,10,13,14)          58.9348         estimate D2E/DX2                !
 ! D38   D(7,10,13,15)         178.6203         estimate D2E/DX2                !
 ! D39   D(7,10,13,16)         -61.8285         estimate D2E/DX2                !
 ! D40   D(11,10,13,14)       -179.6894         estimate D2E/DX2                !
 ! D41   D(11,10,13,15)        -60.0039         estimate D2E/DX2                !
 ! D42   D(11,10,13,16)         59.5472         estimate D2E/DX2                !
 ! D43   D(12,10,13,14)        -62.2141         estimate D2E/DX2                !
 ! D44   D(12,10,13,15)         57.4714         estimate D2E/DX2                !
 ! D45   D(12,10,13,16)        177.0226         estimate D2E/DX2                !
 --------------------------------------------------------------------------------
 Trust Radius=3.00D-01 FncErr=1.00D-07 GrdErr=1.00D-07
 Number of steps in this run= 110 maximum allowed number of steps= 120.
 GradGradGradGradGradGradGradGradGradGradGradGradGradGradGradGradGradGrad

 Leave Link  103 at Mon Sep 14 19:12:04 2015, MaxMem=  402653184 cpu:       0.0
 (Enter /share/apps/g09/l202.exe)
                          Input orientation:                          
 ---------------------------------------------------------------------
 Center     Atomic      Atomic             Coordinates (Angstroms)
 Number     Number       Type             X           Y           Z
 ---------------------------------------------------------------------
      1          6           0        2.157800   -0.318600    0.559000
      2          1           0        2.069400   -1.410100    0.763200
      3          1           0        2.167200    0.227400    1.530400
      4          1           0        3.129200   -0.145100    0.041800
      5          6           0        0.991000    0.158000   -0.319200
      6          1           0        1.041400   -0.417700   -1.273500
      7          6           0       -0.358500   -0.153700    0.366600
      8          1           0       -0.440400    0.432900    1.311800
      9          1           0       -0.370900   -1.236400    0.635900
     10          6           0       -1.591600    0.126900   -0.506300
     11          1           0       -1.477500   -0.381200   -1.491700
     12          1           0       -1.689400    1.222300   -0.681600
     13          6           0       -2.882900   -0.361700    0.145700
     14          1           0       -3.030300    0.132500    1.132900
     15          1           0       -3.748500   -0.114900   -0.509900
     16          1           0       -2.850300   -1.465600    0.290700
     17          6           0        1.161900    1.647300   -0.658100
     18          1           0        0.409400    1.967000   -1.412900
     19          1           0        1.046400    2.274000    0.255700
     20          1           0        2.170300    1.833100   -1.093600
 ---------------------------------------------------------------------
                    Distance matrix (angstroms):
                    1          2          3          4          5
     1  C    0.000000
     2  H    1.113950   0.000000
     3  H    1.114371   1.810957   0.000000
     4  H    1.114099   1.801061   1.811113   0.000000
     5  C    1.536166   2.189400   2.193008   2.189541   0.000000
     6  H    2.148075   2.487929   3.089569   2.482586   1.115643
     7  C    2.529027   2.762342   2.806925   3.502802   1.545519
     8  H    2.807508   3.161757   2.624804   3.832627   2.187381
     9  H    2.691207   2.449784   3.063461   3.714107   2.170562
    10  C    3.923179   4.168563   4.276310   4.760289   2.589555
    11  H    4.174290   4.327090   4.773607   4.860972   2.785495
    12  H    4.326015   4.810983   4.555890   5.060830   2.906650
    13  C    5.057799   5.099581   5.269530   6.016898   3.936156
    14  H    5.239202   5.340715   5.213542   6.261549   4.275523
    15  H    6.005699   6.094775   6.267017   6.899858   4.751179
    16  H    5.144770   4.942650   5.438604   6.128629   4.214693
    17  C    2.517521   3.491611   2.795760   2.751877   1.536904
    18  H    3.488447   4.346932   3.844357   3.738239   2.192469
    19  H    2.837036   3.857030   2.658877   3.199352   2.193407
    20  H    2.713127   3.738480   3.076306   2.474247   2.190069
                    6          7          8          9         10
     6  H    0.000000
     7  C    2.172405   0.000000
     8  H    3.098875   1.115442   0.000000
     9  H    2.512105   1.115758   1.802286   0.000000
    10  C    2.796046   1.536628   2.173565   2.157155   0.000000
    11  H    2.528597   2.181100   3.098055   2.546097   1.114539
    12  H    3.239940   2.182520   2.481289   3.085361   1.113641
    13  C    4.173415   2.542569   2.820813   2.704726   1.526856
    14  H    4.761536   2.794216   2.613394   3.032046   2.181024
    15  H    4.859827   3.501694   3.816045   3.738824   2.170414
    16  H    4.323210   2.817075   3.233352   2.513786   2.180732
    17  C    2.158115   2.570064   2.814718   3.512782   3.149035
    18  H    2.470961   2.872918   3.240311   3.881781   2.865640
    19  H    3.095759   2.807093   2.591442   3.804760   3.485646
    20  H    2.524456   3.531910   3.816053   4.344042   4.172281
                   11         12         13         14         15
    11  H    0.000000
    12  H    1.808971   0.000000
    13  C    2.157918   2.148935   0.000000
    14  H    3.092507   2.505611   1.113788   0.000000
    15  H    2.488431   2.461194   1.113546   1.809920   0.000000
    16  H    2.497489   3.085103   1.113859   1.815385   1.808899
    17  C    3.431637   2.882896   4.587219   4.803836   5.219132
    18  H    3.013411   2.344001   4.323346   4.655966   4.736861
    19  H    4.058764   3.077207   4.732696   4.687748   5.411474
    20  H    4.285797   3.929390   5.646932   5.907248   6.258403
                   16         17         18         19         20
    16  H    0.000000
    17  C    5.166054   0.000000
    18  H    5.030968   1.112739   0.000000
    19  H    5.400935   1.114057   1.812248   0.000000
    20  H    6.164749   1.114025   1.794617   1.810567   0.000000
 Stoichiometry    C6H14
 Framework group  C1[X(C6H14)]
 Deg. of freedom    54
 Full point group                 C1      NOp   1
 Largest Abelian subgroup         C1      NOp   1
 Largest concise Abelian subgroup C1      NOp   1
                         Standard orientation:                         
 ---------------------------------------------------------------------
 Center     Atomic      Atomic             Coordinates (Angstroms)
 Number     Number       Type             X           Y           Z
 ---------------------------------------------------------------------
      1          6           0        2.151352   -1.040881    0.030246
      2          1           0        1.897631   -2.041053   -0.389475
      3          1           0        2.251642   -1.132132    1.136338
      4          1           0        3.134106   -0.731499   -0.393656
      5          6           0        1.065394   -0.016792   -0.332715
      6          1           0        1.019747    0.033126   -1.446306
      7          6           0       -0.310984   -0.486565    0.190282
      8          1           0       -0.294852   -0.518562    1.305148
      9          1           0       -0.487786   -1.525053   -0.177412
     10          6           0       -1.492555    0.381586   -0.269535
     11          1           0       -1.465090    0.496473   -1.377797
     12          1           0       -1.422004    1.392003    0.193363
     13          6           0       -2.838875   -0.222145    0.123173
     14          1           0       -2.901368   -0.345337    1.228362
     15          1           0       -3.660951    0.452040   -0.207965
     16          1           0       -2.975375   -1.214654   -0.363629
     17          6           0        1.460831    1.375121    0.185245
     18          1           0        0.760999    2.150311   -0.198817
     19          1           0        1.449703    1.397701    1.299018
     20          1           0        2.482627    1.644686   -0.167346
 ---------------------------------------------------------------------
 Rotational constants (GHZ):      6.5622913      1.6985513      1.4593455
 Leave Link  202 at Mon Sep 14 19:12:04 2015, MaxMem=  402653184 cpu:       0.0
 (Enter /share/apps/g09/l301.exe)
 Standard basis: VSTO-6G (5D, 7F)
 Ernie: Thresh=  0.10000D-02 Tol=  0.10000D-05 Strict=F.
  NNHCO=     0 NNPyr=     0 NCTC=     0               EPep=         0.000000000
    EC=       127.646077652  ECS=         3.137115190   EG=         0.306111334
   EHC=         0.000407740  EAt=       -31.187935768  AtH=         2.796400831
 EPDDG=         0.000000000  ECC=       131.089711916 EAtT=        33.984336599
 There are    38 symmetry adapted basis functions of A   symmetry.
 Integral buffers will be    131072 words long.
 Regular integral format.
 Two-electron integral symmetry is turned off.
    38 basis functions,   228 primitive gaussians,    38 cartesian basis functions
    19 alpha electrons       19 beta electrons
       nuclear repulsion energy       165.0740485149 Hartrees.
 IExCor=    0 DFT=F Ex=HF Corr=None ExCW=0 ScaHFX=  1.000000
 ScaDFX=  1.000000  1.000000  1.000000  1.000000 ScalE2=  1.000000  1.000000
 IRadAn=      0 IRanWt=     -1 IRanGd=            0 ICorTp=0
 Leave Link  301 at Mon Sep 14 19:12:06 2015, MaxMem=  402653184 cpu:       0.1
 (Enter /share/apps/g09/l302.exe)
 Do NDO integrals.
 NPDir=0 NMtPBC=     1 NCelOv=     1 NCel=       1 NClECP=     1 NCelD=      1
         NCelK=      1 NCelE2=     1 NClLst=     1 CellRange=     0.0.
 One-electron integrals computed using PRISM.
 NBasis=    38 RedAO= F  NBF=    38
 NBsUse=    38 1.00D-04 NBFU=    38
 Leave Link  302 at Mon Sep 14 19:12:07 2015, MaxMem=  402653184 cpu:       0.1
 (Enter /share/apps/g09/l303.exe)
 DipDrv:  MaxL=1.
 Leave Link  303 at Mon Sep 14 19:12:08 2015, MaxMem=  402653184 cpu:       0.0
 (Enter /share/apps/g09/l401.exe)
 Simple Huckel Guess.
 Initial guess orbital symmetries:
       Occupied  (A) (A) (A) (A) (A) (A) (A) (A) (A) (A) (A) (A)
                 (A) (A) (A) (A) (A) (A) (A)
       Virtual   (A) (A) (A) (A) (A) (A) (A) (A) (A) (A) (A) (A)
                 (A) (A) (A) (A) (A) (A) (A)
 The electronic state of the initial guess is 1-A.
 Leave Link  401 at Mon Sep 14 19:12:08 2015, MaxMem=  402653184 cpu:       0.1
 (Enter /share/apps/g09/l502.exe)
 Closed shell SCF:
 Requested convergence on RMS density matrix=1.00D-08 within 128 cycles.
 Requested convergence on MAX density matrix=1.00D-06.
 Requested convergence on             energy=1.00D-06.
 No special actions if energy rises.
 Using DIIS extrapolation, IDIIS=  1040.
 Overlap will be assumed to be unity.
 Two-electron integral symmetry not used.
 Keep J ints in memory in canonical form, NReq=884654.
 IEnd=       81865 IEndB=       81865 NGot=   402653184 MDV=   402586639
 LenX=   402586639 LenY=   402584754
 Symmetry not used in FoFDir.
 MinBra= 0 MaxBra= 1 Meth=40.
 IRaf=       0 NMat=   1 IRICut=       1 DoRegI=T DoRafI=F ISym2E= 0 JSym2E=0.

 Cycle   1  Pass 1  IDiag  1:
 E= 0.725776063996193E-01
 DIIS: error= 2.20D-02 at cycle   1 NSaved=   1.
 NSaved= 1 IEnMin= 1 EnMin= 0.725776063996193E-01 IErMin= 1 ErrMin= 2.20D-02
 ErrMax= 2.20D-02 EMaxC= 1.00D-01 BMatC= 4.39D-02 BMatP= 4.39D-02
 IDIUse=3 WtCom= 7.80D-01 WtEn= 2.20D-01
 Coeff-Com:  0.100D+01
 Coeff-En:   0.100D+01
 Coeff:      0.100D+01
 GapD=    2.000 DampG=2.000 DampE=0.500 DampFc=1.0000 IDamp=-1.
 RMSDP=8.41D-03 MaxDP=6.95D-02              OVMax= 0.00D+00

 Cycle   2  Pass 1  IDiag  1:
 E=-0.441138186247656E-01 Delta-E=       -0.116691425024 Rises=F Damp=F
 DIIS: error= 5.37D-03 at cycle   2 NSaved=   2.
 NSaved= 2 IEnMin= 2 EnMin=-0.441138186247656E-01 IErMin= 2 ErrMin= 5.37D-03
 ErrMax= 5.37D-03 EMaxC= 1.00D-01 BMatC= 3.02D-03 BMatP= 4.39D-02
 IDIUse=3 WtCom= 9.46D-01 WtEn= 5.37D-02
 Coeff-Com: -0.320D+00 0.132D+01
 Coeff-En:   0.000D+00 0.100D+01
 Coeff:     -0.303D+00 0.130D+01
 RMSDP=3.10D-03 MaxDP=2.15D-02 DE=-1.17D-01 OVMax= 0.00D+00

 Cycle   3  Pass 1  IDiag  3:
 E=-0.542873876430292E-01 Delta-E=       -0.010173569018 Rises=F Damp=F
 DIIS: error= 1.59D-03 at cycle   3 NSaved=   3.
 NSaved= 3 IEnMin= 3 EnMin=-0.542873876430292E-01 IErMin= 3 ErrMin= 1.59D-03
 ErrMax= 1.59D-03 EMaxC= 1.00D-01 BMatC= 1.40D-04 BMatP= 3.02D-03
 IDIUse=3 WtCom= 9.84D-01 WtEn= 1.59D-02
 Coeff-Com:  0.256D+00-0.111D+01 0.186D+01
 Coeff-En:   0.000D+00 0.000D+00 0.100D+01
 Coeff:      0.252D+00-0.110D+01 0.184D+01
 Gap=     0.557 Goal=   None    Shift=    0.000
 RMSDP=1.21D-03 MaxDP=1.14D-02 DE=-1.02D-02 OVMax= 0.00D+00

 Cycle   4  Pass 1  IDiag  3:
 E=-0.552537996566400E-01 Delta-E=       -0.000966412014 Rises=F Damp=F
 DIIS: error= 5.12D-04 at cycle   4 NSaved=   4.
 NSaved= 4 IEnMin= 4 EnMin=-0.552537996566400E-01 IErMin= 4 ErrMin= 5.12D-04
 ErrMax= 5.12D-04 EMaxC= 1.00D-01 BMatC= 1.42D-05 BMatP= 1.40D-04
 IDIUse=3 WtCom= 9.95D-01 WtEn= 5.12D-03
 Coeff-Com: -0.143D+00 0.636D+00-0.132D+01 0.183D+01
 Coeff-En:   0.000D+00 0.000D+00 0.000D+00 0.100D+01
 Coeff:     -0.143D+00 0.632D+00-0.131D+01 0.182D+01
 Gap=     0.557 Goal=   None    Shift=    0.000
 RMSDP=5.08D-04 MaxDP=5.17D-03 DE=-9.66D-04 OVMax= 0.00D+00

 Cycle   5  Pass 1  IDiag  3:
 E=-0.553730006932369E-01 Delta-E=       -0.000119201037 Rises=F Damp=F
 DIIS: error= 2.07D-04 at cycle   5 NSaved=   5.
 NSaved= 5 IEnMin= 5 EnMin=-0.553730006932369E-01 IErMin= 5 ErrMin= 2.07D-04
 ErrMax= 2.07D-04 EMaxC= 1.00D-01 BMatC= 1.18D-06 BMatP= 1.42D-05
 IDIUse=3 WtCom= 9.98D-01 WtEn= 2.07D-03
 Coeff-Com:  0.977D-01-0.437D+00 0.957D+00-0.155D+01 0.194D+01
 Coeff-En:   0.000D+00 0.000D+00 0.000D+00 0.000D+00 0.100D+01
 Coeff:      0.975D-01-0.436D+00 0.955D+00-0.155D+01 0.193D+01
 Gap=     0.557 Goal=   None    Shift=    0.000
 RMSDP=1.50D-04 MaxDP=1.68D-03 DE=-1.19D-04 OVMax= 0.00D+00

 Cycle   6  Pass 1  IDiag  3:
 E=-0.553828127367240E-01 Delta-E=       -0.000009812043 Rises=F Damp=F
 DIIS: error= 3.90D-05 at cycle   6 NSaved=   6.
 NSaved= 6 IEnMin= 6 EnMin=-0.553828127367240E-01 IErMin= 6 ErrMin= 3.90D-05
 ErrMax= 3.90D-05 EMaxC= 1.00D-01 BMatC= 6.81D-08 BMatP= 1.18D-06
 IDIUse=1 WtCom= 1.00D+00 WtEn= 0.00D+00
 Coeff-Com: -0.694D-02 0.319D-01-0.830D-01 0.174D+00-0.417D+00 0.130D+01
 Coeff:     -0.694D-02 0.319D-01-0.830D-01 0.174D+00-0.417D+00 0.130D+01
 Gap=     0.557 Goal=   None    Shift=    0.000
 RMSDP=2.92D-05 MaxDP=3.36D-04 DE=-9.81D-06 OVMax= 0.00D+00

 Cycle   7  Pass 1  IDiag  3:
 E=-0.553832896363247E-01 Delta-E=       -0.000000476900 Rises=F Damp=F
 DIIS: error= 1.94D-05 at cycle   7 NSaved=   7.
 NSaved= 7 IEnMin= 7 EnMin=-0.553832896363247E-01 IErMin= 7 ErrMin= 1.94D-05
 ErrMax= 1.94D-05 EMaxC= 1.00D-01 BMatC= 8.05D-09 BMatP= 6.81D-08
 IDIUse=1 WtCom= 1.00D+00 WtEn= 0.00D+00
 Coeff-Com:  0.196D-02-0.926D-02 0.263D-01-0.594D-01 0.164D+00-0.784D+00
 Coeff-Com:  0.166D+01
 Coeff:      0.196D-02-0.926D-02 0.263D-01-0.594D-01 0.164D+00-0.784D+00
 Coeff:      0.166D+01
 Gap=     0.557 Goal=   None    Shift=    0.000
 RMSDP=1.04D-05 MaxDP=1.30D-04 DE=-4.77D-07 OVMax= 0.00D+00

 Cycle   8  Pass 1  IDiag  3:
 E=-0.553833457282735E-01 Delta-E=       -0.000000056092 Rises=F Damp=F
 DIIS: error= 5.27D-06 at cycle   8 NSaved=   8.
 NSaved= 8 IEnMin= 8 EnMin=-0.553833457282735E-01 IErMin= 8 ErrMin= 5.27D-06
 ErrMax= 5.27D-06 EMaxC= 1.00D-01 BMatC= 5.36D-10 BMatP= 8.05D-09
 IDIUse=1 WtCom= 1.00D+00 WtEn= 0.00D+00
 Coeff-Com: -0.510D-03 0.260D-02-0.957D-02 0.259D-01-0.844D-01 0.468D+00
 Coeff-Com: -0.117D+01 0.177D+01
 Coeff:     -0.510D-03 0.260D-02-0.957D-02 0.259D-01-0.844D-01 0.468D+00
 Coeff:     -0.117D+01 0.177D+01
 Gap=     0.557 Goal=   None    Shift=    0.000
 RMSDP=2.69D-06 MaxDP=3.74D-05 DE=-5.61D-08 OVMax= 0.00D+00

 Cycle   9  Pass 1  IDiag  3:
 E=-0.553833493184470E-01 Delta-E=       -0.000000003590 Rises=F Damp=F
 DIIS: error= 5.48D-07 at cycle   9 NSaved=   9.
 NSaved= 9 IEnMin= 9 EnMin=-0.553833493184470E-01 IErMin= 9 ErrMin= 5.48D-07
 ErrMax= 5.48D-07 EMaxC= 1.00D-01 BMatC= 1.89D-11 BMatP= 5.36D-10
 IDIUse=1 WtCom= 1.00D+00 WtEn= 0.00D+00
 Coeff-Com: -0.637D-04 0.172D-03 0.962D-03-0.511D-02 0.231D-01-0.149D+00
 Coeff-Com:  0.398D+00-0.724D+00 0.146D+01
 Coeff:     -0.637D-04 0.172D-03 0.962D-03-0.511D-02 0.231D-01-0.149D+00
 Coeff:      0.398D+00-0.724D+00 0.146D+01
 Gap=     0.557 Goal=   None    Shift=    0.000
 RMSDP=4.27D-07 MaxDP=4.20D-06 DE=-3.59D-09 OVMax= 0.00D+00

 Cycle  10  Pass 1  IDiag  3:
 E=-0.553833494356866E-01 Delta-E=       -0.000000000117 Rises=F Damp=F
 DIIS: error= 2.52D-07 at cycle  10 NSaved=  10.
 NSaved=10 IEnMin=10 EnMin=-0.553833494356866E-01 IErMin=10 ErrMin= 2.52D-07
 ErrMax= 2.52D-07 EMaxC= 1.00D-01 BMatC= 2.09D-12 BMatP= 1.89D-11
 IDIUse=1 WtCom= 1.00D+00 WtEn= 0.00D+00
 Coeff-Com:  0.264D-04-0.434D-04-0.794D-03 0.364D-02-0.156D-01 0.997D-01
 Coeff-Com: -0.266D+00 0.499D+00-0.121D+01 0.189D+01
 Coeff:      0.264D-04-0.434D-04-0.794D-03 0.364D-02-0.156D-01 0.997D-01
 Coeff:     -0.266D+00 0.499D+00-0.121D+01 0.189D+01
 Gap=     0.557 Goal=   None    Shift=    0.000
 RMSDP=1.71D-07 MaxDP=2.07D-06 DE=-1.17D-10 OVMax= 0.00D+00

 Cycle  11  Pass 1  IDiag  3:
 E=-0.553833494515175E-01 Delta-E=       -0.000000000016 Rises=F Damp=F
 DIIS: error= 6.53D-08 at cycle  11 NSaved=  11.
 NSaved=11 IEnMin=11 EnMin=-0.553833494515175E-01 IErMin=11 ErrMin= 6.53D-08
 ErrMax= 6.53D-08 EMaxC= 1.00D-01 BMatC= 1.44D-13 BMatP= 2.09D-12
 IDIUse=1 WtCom= 1.00D+00 WtEn= 0.00D+00
 Coeff-Com:  0.119D-04-0.847D-04 0.559D-03-0.189D-02 0.706D-02-0.426D-01
 Coeff-Com:  0.112D+00-0.211D+00 0.538D+00-0.107D+01 0.167D+01
 Coeff:      0.119D-04-0.847D-04 0.559D-03-0.189D-02 0.706D-02-0.426D-01
 Coeff:      0.112D+00-0.211D+00 0.538D+00-0.107D+01 0.167D+01
 Gap=     0.557 Goal=   None    Shift=    0.000
 RMSDP=4.98D-08 MaxDP=5.92D-07 DE=-1.58D-11 OVMax= 0.00D+00

 Cycle  12  Pass 1  IDiag  3:
 E=-0.553833494523701E-01 Delta-E=       -0.000000000001 Rises=F Damp=F
 DIIS: error= 6.75D-09 at cycle  12 NSaved=  12.
 NSaved=12 IEnMin=12 EnMin=-0.553833494523701E-01 IErMin=12 ErrMin= 6.75D-09
 ErrMax= 6.75D-09 EMaxC= 1.00D-01 BMatC= 2.97D-15 BMatP= 1.44D-13
 IDIUse=1 WtCom= 1.00D+00 WtEn= 0.00D+00
 Coeff-Com: -0.889D-06 0.140D-04-0.149D-03 0.552D-03-0.216D-02 0.133D-01
 Coeff-Com: -0.352D-01 0.664D-01-0.171D+00 0.357D+00-0.648D+00 0.142D+01
 Coeff:     -0.889D-06 0.140D-04-0.149D-03 0.552D-03-0.216D-02 0.133D-01
 Coeff:     -0.352D-01 0.664D-01-0.171D+00 0.357D+00-0.648D+00 0.142D+01
 Gap=     0.557 Goal=   None    Shift=    0.000
 RMSDP=5.13D-09 MaxDP=5.36D-08 DE=-8.53D-13 OVMax= 0.00D+00

 Cycle  13  Pass 2  IDiag  1:
 RMSDP=5.13D-09 MaxDP=5.36D-08 DE=-8.53D-13 OVMax= 0.00D+00

 SCF Done:  E(RPM6) = -0.553833494524E-01 A.U. after   13 cycles
             Convg  =    0.5127D-08             -V/T =  0.9990
 KE=-5.614327527680D+01 PE=-2.512694697105D+02 EE= 1.422833131230D+02
 Leave Link  502 at Mon Sep 14 19:12:12 2015, MaxMem=  402653184 cpu:       2.9
 (Enter /share/apps/g09/l601.exe)
 Copying SCF densities to generalized density rwf, IOpCl= 0 IROHF=0.

 **********************************************************************

            Population analysis using the SCF density.

 **********************************************************************

 Orbital symmetries:
       Occupied  (A) (A) (A) (A) (A) (A) (A) (A) (A) (A) (A) (A)
                 (A) (A) (A) (A) (A) (A) (A)
       Virtual   (A) (A) (A) (A) (A) (A) (A) (A) (A) (A) (A) (A)
                 (A) (A) (A) (A) (A) (A) (A)
 The electronic state is 1-A.
 Alpha  occ. eigenvalues --   -1.05450  -0.98499  -0.87083  -0.85439  -0.74176
 Alpha  occ. eigenvalues --   -0.70176  -0.59031  -0.55603  -0.54366  -0.52092
 Alpha  occ. eigenvalues --   -0.49554  -0.47996  -0.47497  -0.46273  -0.44215
 Alpha  occ. eigenvalues --   -0.42581  -0.40981  -0.40966  -0.40328
 Alpha virt. eigenvalues --    0.15377   0.15567   0.17003   0.17544   0.18445
 Alpha virt. eigenvalues --    0.20790   0.21673   0.21813   0.21972   0.22070
 Alpha virt. eigenvalues --    0.22209   0.22306   0.23372   0.23702   0.24270
 Alpha virt. eigenvalues --    0.24570   0.24985   0.25237   0.25607
          Condensed to atoms (all electrons):
              1          2          3          4          5          6
     1  C    4.500537   0.000000   0.000000   0.000000   0.000000   0.000000
     2  H    0.000000   0.852280   0.000000   0.000000   0.000000   0.000000
     3  H    0.000000   0.000000   0.847442   0.000000   0.000000   0.000000
     4  H    0.000000   0.000000   0.000000   0.850411   0.000000   0.000000
     5  C    0.000000   0.000000   0.000000   0.000000   3.982666   0.000000
     6  H    0.000000   0.000000   0.000000   0.000000   0.000000   0.893174
     7  C    0.000000   0.000000   0.000000   0.000000   0.000000   0.000000
     8  H    0.000000   0.000000   0.000000   0.000000   0.000000   0.000000
     9  H    0.000000   0.000000   0.000000   0.000000   0.000000   0.000000
    10  C    0.000000   0.000000   0.000000   0.000000   0.000000   0.000000
    11  H    0.000000   0.000000   0.000000   0.000000   0.000000   0.000000
    12  H    0.000000   0.000000   0.000000   0.000000   0.000000   0.000000
    13  C    0.000000   0.000000   0.000000   0.000000   0.000000   0.000000
    14  H    0.000000   0.000000   0.000000   0.000000   0.000000   0.000000
    15  H    0.000000   0.000000   0.000000   0.000000   0.000000   0.000000
    16  H    0.000000   0.000000   0.000000   0.000000   0.000000   0.000000
    17  C    0.000000   0.000000   0.000000   0.000000   0.000000   0.000000
    18  H    0.000000   0.000000   0.000000   0.000000   0.000000   0.000000
    19  H    0.000000   0.000000   0.000000   0.000000   0.000000   0.000000
    20  H    0.000000   0.000000   0.000000   0.000000   0.000000   0.000000
              7          8          9         10         11         12
     1  C    0.000000   0.000000   0.000000   0.000000   0.000000   0.000000
     2  H    0.000000   0.000000   0.000000   0.000000   0.000000   0.000000
     3  H    0.000000   0.000000   0.000000   0.000000   0.000000   0.000000
     4  H    0.000000   0.000000   0.000000   0.000000   0.000000   0.000000
     5  C    0.000000   0.000000   0.000000   0.000000   0.000000   0.000000
     6  H    0.000000   0.000000   0.000000   0.000000   0.000000   0.000000
     7  C    4.306107   0.000000   0.000000   0.000000   0.000000   0.000000
     8  H    0.000000   0.862427   0.000000   0.000000   0.000000   0.000000
     9  H    0.000000   0.000000   0.864960   0.000000   0.000000   0.000000
    10  C    0.000000   0.000000   0.000000   4.219023   0.000000   0.000000
    11  H    0.000000   0.000000   0.000000   0.000000   0.874518   0.000000
    12  H    0.000000   0.000000   0.000000   0.000000   0.000000   0.873062
    13  C    0.000000   0.000000   0.000000   0.000000   0.000000   0.000000
    14  H    0.000000   0.000000   0.000000   0.000000   0.000000   0.000000
    15  H    0.000000   0.000000   0.000000   0.000000   0.000000   0.000000
    16  H    0.000000   0.000000   0.000000   0.000000   0.000000   0.000000
    17  C    0.000000   0.000000   0.000000   0.000000   0.000000   0.000000
    18  H    0.000000   0.000000   0.000000   0.000000   0.000000   0.000000
    19  H    0.000000   0.000000   0.000000   0.000000   0.000000   0.000000
    20  H    0.000000   0.000000   0.000000   0.000000   0.000000   0.000000
             13         14         15         16         17         18
     1  C    0.000000   0.000000   0.000000   0.000000   0.000000   0.000000
     2  H    0.000000   0.000000   0.000000   0.000000   0.000000   0.000000
     3  H    0.000000   0.000000   0.000000   0.000000   0.000000   0.000000
     4  H    0.000000   0.000000   0.000000   0.000000   0.000000   0.000000
     5  C    0.000000   0.000000   0.000000   0.000000   0.000000   0.000000
     6  H    0.000000   0.000000   0.000000   0.000000   0.000000   0.000000
     7  C    0.000000   0.000000   0.000000   0.000000   0.000000   0.000000
     8  H    0.000000   0.000000   0.000000   0.000000   0.000000   0.000000
     9  H    0.000000   0.000000   0.000000   0.000000   0.000000   0.000000
    10  C    0.000000   0.000000   0.000000   0.000000   0.000000   0.000000
    11  H    0.000000   0.000000   0.000000   0.000000   0.000000   0.000000
    12  H    0.000000   0.000000   0.000000   0.000000   0.000000   0.000000
    13  C    4.465961   0.000000   0.000000   0.000000   0.000000   0.000000
    14  H    0.000000   0.852221   0.000000   0.000000   0.000000   0.000000
    15  H    0.000000   0.000000   0.855584   0.000000   0.000000   0.000000
    16  H    0.000000   0.000000   0.000000   0.853046   0.000000   0.000000
    17  C    0.000000   0.000000   0.000000   0.000000   4.493830   0.000000
    18  H    0.000000   0.000000   0.000000   0.000000   0.000000   0.851995
    19  H    0.000000   0.000000   0.000000   0.000000   0.000000   0.000000
    20  H    0.000000   0.000000   0.000000   0.000000   0.000000   0.000000
             19         20
     1  C    0.000000   0.000000
     2  H    0.000000   0.000000
     3  H    0.000000   0.000000
     4  H    0.000000   0.000000
     5  C    0.000000   0.000000
     6  H    0.000000   0.000000
     7  C    0.000000   0.000000
     8  H    0.000000   0.000000
     9  H    0.000000   0.000000
    10  C    0.000000   0.000000
    11  H    0.000000   0.000000
    12  H    0.000000   0.000000
    13  C    0.000000   0.000000
    14  H    0.000000   0.000000
    15  H    0.000000   0.000000
    16  H    0.000000   0.000000
    17  C    0.000000   0.000000
    18  H    0.000000   0.000000
    19  H    0.848099   0.000000
    20  H    0.000000   0.852656
 Mulliken atomic charges:
              1
     1  C   -0.500537
     2  H    0.147720
     3  H    0.152558
     4  H    0.149589
     5  C    0.017334
     6  H    0.106826
     7  C   -0.306107
     8  H    0.137573
     9  H    0.135040
    10  C   -0.219023
    11  H    0.125482
    12  H    0.126938
    13  C   -0.465961
    14  H    0.147779
    15  H    0.144416
    16  H    0.146954
    17  C   -0.493830
    18  H    0.148005
    19  H    0.151901
    20  H    0.147344
 Sum of Mulliken atomic charges =   0.00000
 Mulliken charges with hydrogens summed into heavy atoms:
              1
     1  C   -0.050669
     5  C    0.124160
     7  C   -0.033494
    10  C    0.033396
    13  C   -0.026813
    17  C   -0.046580
 Sum of Mulliken charges with hydrogens summed into heavy atoms =   0.00000
 Charge=              0.0000 electrons
 Dipole moment (field-independent basis, Debye):
    X=              0.0115    Y=             -0.0322    Z=              0.0346  Tot=              0.0486
 N-N= 1.650740485149D+02 E-N=-2.512694696657D+02  KE=-5.614327527680D+01
 Leave Link  601 at Mon Sep 14 19:12:12 2015, MaxMem=  402653184 cpu:       0.0
 (Enter /share/apps/g09/l701.exe)
 Compute integral first derivatives.
 ... and contract with generalized density number  0.
 Leave Link  701 at Mon Sep 14 19:12:14 2015, MaxMem=  402653184 cpu:       0.1
 (Enter /share/apps/g09/l702.exe)
 L702 exits ... SP integral derivatives will be done elsewhere.
 Leave Link  702 at Mon Sep 14 19:12:16 2015, MaxMem=  402653184 cpu:       0.0
 (Enter /share/apps/g09/l703.exe)
 Compute integral first derivatives, UseDBF=F ICtDFT=           0.
 Integral derivatives from FoFDir, PRISM(SPDF).
 Calling FoFJK, ICntrl=      2127 FMM=F ISym2X=0 I1Cent= 0 IOpClX= 0 NMat=1 NMatS=1 NMatT=0.
 FoFCou: FMM=F IPFlag=           0 FMFlag=      100000 FMFlg1=         800
         NFxFlg=           0 DoJE=F BraDBF=F KetDBF=F FulRan=T
         Omega=  0.000000  0.000000  1.000000  0.000000  0.000000 ICntrl=    2127 IOpCl=  0
         NMat0=    1 NMatS0=    1 NMatT0=    0 NMatD0=    1 NMtDS0=    0 NMtDT0=    0
         I1Cent=           0 NGrid=           0.
 Symmetry not used in FoFCou.
 Leave Link  703 at Mon Sep 14 19:12:16 2015, MaxMem=  402653184 cpu:       0.1
 (Enter /share/apps/g09/l716.exe)
 Dipole        = 4.54083664D-03-1.26546327D-02 1.35965213D-02
 ***** Axes restored to original set *****
 -------------------------------------------------------------------
 Center     Atomic                   Forces (Hartrees/Bohr)
 Number     Number              X              Y              Z
 -------------------------------------------------------------------
      1        6           0.002607193   -0.002169481    0.003985196
      2        1           0.002481750    0.010176086   -0.000165766
      3        1           0.001969302   -0.006369978   -0.008646060
      4        1          -0.008092918   -0.001793431    0.006699806
      5        6          -0.000231884    0.001723957   -0.001765928
      6        1          -0.001501563   -0.000756425   -0.002214083
      7        6          -0.000388454   -0.000114268    0.002173436
      8        1           0.000794314   -0.004346480   -0.003424746
      9        1           0.000808844    0.004582361    0.002157790
     10        6           0.002101262    0.001880615   -0.002339878
     11        1           0.000857599    0.004544816    0.002124539
     12        1           0.002858374   -0.003373004   -0.002655943
     13        6          -0.003153849   -0.002100335    0.002186924
     14        1          -0.001085689   -0.006292051   -0.008225891
     15        1           0.005483096   -0.003407590    0.007747296
     16        1          -0.003024344    0.009969545    0.000484984
     17        6          -0.000837033    0.003012722   -0.000347313
     18        1           0.006386856   -0.001117752    0.007639269
     19        1           0.001319965   -0.004181634   -0.010019937
     20        1          -0.009352821    0.000132329    0.004606306
 -------------------------------------------------------------------
 Cartesian Forces:  Max     0.010176086 RMS     0.004451345
 Leave Link  716 at Mon Sep 14 19:12:16 2015, MaxMem=  402653184 cpu:       0.0
 (Enter /share/apps/g09/l103.exe)

 GradGradGradGradGradGradGradGradGradGradGradGradGradGradGradGradGradGrad
 Berny optimization.
 Internal  Forces:  Max     0.010707981 RMS     0.003597523
 Search for a local minimum.
 Step number   1 out of a maximum of  110
 All quantities printed in internal units (Hartrees-Bohrs-Radians)
 RMS Force = .35975D-02 SwitMx=.10000D-02 MixMth= 1
 Mixed Optimization -- RFO/linear search
 Second derivative matrix not updated -- first step.
     Eigenvalues ---    0.00230   0.00278   0.00281   0.00288   0.00411
     Eigenvalues ---    0.03337   0.03412   0.03637   0.04559   0.04764
     Eigenvalues ---    0.04875   0.04964   0.05497   0.05530   0.05590
     Eigenvalues ---    0.05601   0.05658   0.05773   0.08184   0.08507
     Eigenvalues ---    0.12087   0.12345   0.16000   0.16000   0.16000
     Eigenvalues ---    0.16000   0.16000   0.16000   0.16000   0.16000
     Eigenvalues ---    0.16000   0.16552   0.17098   0.21977   0.21995
     Eigenvalues ---    0.28036   0.28795   0.28820   0.28861   0.29716
     Eigenvalues ---    0.31998   0.32010   0.32031   0.32124   0.32142
     Eigenvalues ---    0.32170   0.32174   0.32178   0.32185   0.32195
     Eigenvalues ---    0.32202   0.32218   0.32227   0.323121000.00000
     Eigenvalues --- 1000.000001000.000001000.000001000.000001000.00000
     Eigenvalues --- 1000.000001000.000001000.000001000.000001000.00000
     Eigenvalues --- 1000.000001000.000001000.000001000.000001000.00000
     Eigenvalues --- 1000.000001000.000001000.000001000.000001000.00000
     Eigenvalues --- 1000.000001000.000001000.000001000.000001000.00000
     Eigenvalues --- 1000.000001000.000001000.000001000.000001000.00000
     Eigenvalues --- 1000.000001000.000001000.000001000.000001000.00000
     Eigenvalues --- 1000.000001000.000001000.000001000.000001000.00000
     Eigenvalues --- 1000.000001000.000001000.000001000.000001000.00000
 RFO step:  Lambda=-5.01299336D-03 EMin= 2.30000000D-03
 Linear search not attempted -- first point.
 Iteration  1 RMS(Cart)=  0.03410890 RMS(Int)=  0.00047028
 Iteration  2 RMS(Cart)=  0.00062736 RMS(Int)=  0.00008671
 Iteration  3 RMS(Cart)=  0.00000020 RMS(Int)=  0.00008671
 Variable       Old X    -DE/DX   Delta X   Delta X   Delta X     New X
                                 (Linear)    (Quad)   (Total)
    R1        2.10506  -0.01020   0.00000  -0.03120  -0.03120   2.07386
    R2        2.10586  -0.01064   0.00000  -0.03260  -0.03260   2.07326
    R3        2.10534  -0.01045   0.00000  -0.03197  -0.03197   2.07337
    R4        2.90293   0.00033   0.00000   0.00114   0.00114   2.90407
    R5        2.10826   0.00222   0.00000   0.00682   0.00682   2.11508
    R6        2.92061  -0.00475   0.00000  -0.01666  -0.01666   2.90395
    R7        2.90433  -0.00278   0.00000  -0.00948  -0.00948   2.89485
    R8        2.10788  -0.00525   0.00000  -0.01613  -0.01613   2.09175
    R9        2.10848  -0.00393   0.00000  -0.01211  -0.01211   2.09637
   R10        2.90381  -0.00263   0.00000  -0.00897  -0.00897   2.89483
   R11        2.10617  -0.00386   0.00000  -0.01184  -0.01184   2.09433
   R12        2.10448  -0.00315   0.00000  -0.00963  -0.00963   2.09485
   R13        2.88534   0.00303   0.00000   0.01002   0.01002   2.89536
   R14        2.10475  -0.00994   0.00000  -0.03039  -0.03039   2.07436
   R15        2.10430  -0.00958   0.00000  -0.02927  -0.02927   2.07503
   R16        2.10489  -0.00991   0.00000  -0.03030  -0.03030   2.07459
   R17        2.10277  -0.00982   0.00000  -0.02993  -0.02993   2.07284
   R18        2.10526  -0.01071   0.00000  -0.03277  -0.03277   2.07249
   R19        2.10520  -0.01024   0.00000  -0.03135  -0.03135   2.07385
    A1        1.89754  -0.00264   0.00000  -0.01630  -0.01640   1.88115
    A2        1.88271  -0.00192   0.00000  -0.00871  -0.00885   1.87386
    A3        1.92679   0.00255   0.00000   0.01680   0.01667   1.94345
    A4        1.89760  -0.00257   0.00000  -0.01812  -0.01816   1.87944
    A5        1.93129   0.00242   0.00000   0.01320   0.01313   1.94441
    A6        1.92683   0.00190   0.00000   0.01166   0.01157   1.93840
    A7        1.86983   0.00043   0.00000   0.02113   0.02106   1.89088
    A8        1.92514  -0.00037   0.00000  -0.00818  -0.00825   1.91689
    A9        1.92010   0.00167   0.00000   0.00566   0.00534   1.92544
   A10        1.89119   0.00046   0.00000  -0.00001   0.00006   1.89124
   A11        1.88221   0.00034   0.00000   0.00791   0.00772   1.88993
   A12        1.97183  -0.00238   0.00000  -0.02374  -0.02378   1.94806
   A13        1.91140   0.00167   0.00000   0.00046   0.00045   1.91185
   A14        1.88863   0.00182   0.00000   0.01218   0.01237   1.90099
   A15        1.99522  -0.00642   0.00000  -0.02583  -0.02577   1.96945
   A16        1.88070  -0.00232   0.00000  -0.01991  -0.01999   1.86072
   A17        1.90330   0.00231   0.00000   0.00827   0.00813   1.91143
   A18        1.88114   0.00307   0.00000   0.02497   0.02505   1.90619
   A19        1.91436   0.00033   0.00000  -0.00298  -0.00303   1.91133
   A20        1.91719  -0.00028   0.00000  -0.00623  -0.00630   1.91089
   A21        1.95806  -0.00243   0.00000  -0.00459  -0.00456   1.95350
   A22        1.89466  -0.00209   0.00000  -0.02931  -0.02955   1.86511
   A23        1.89467   0.00185   0.00000   0.01734   0.01732   1.91199
   A24        1.88358   0.00265   0.00000   0.02534   0.02533   1.90891
   A25        1.92668   0.00300   0.00000   0.01730   0.01714   1.94382
   A26        1.91249   0.00341   0.00000   0.02203   0.02179   1.93427
   A27        1.92621   0.00330   0.00000   0.01952   0.01933   1.94555
   A28        1.89718  -0.00314   0.00000  -0.01813  -0.01834   1.87884
   A29        1.90523  -0.00362   0.00000  -0.02450  -0.02460   1.88063
   A30        1.89552  -0.00318   0.00000  -0.01751  -0.01776   1.87775
   A31        1.93135   0.00136   0.00000   0.00871   0.00864   1.93998
   A32        1.93127   0.00224   0.00000   0.01105   0.01102   1.94229
   A33        1.92674   0.00193   0.00000   0.01374   0.01364   1.94038
   A34        1.90145  -0.00237   0.00000  -0.01819  -0.01819   1.88326
   A35        1.87449  -0.00109   0.00000  -0.00170  -0.00182   1.87267
   A36        1.89724  -0.00229   0.00000  -0.01482  -0.01488   1.88236
    D1       -1.04712   0.00015   0.00000   0.00267   0.00271  -1.04441
    D2        1.00781   0.00074   0.00000   0.01047   0.01048   1.01828
    D3       -3.08863  -0.00139   0.00000  -0.02170  -0.02178  -3.11041
    D4        3.13458   0.00020   0.00000   0.00346   0.00349   3.13807
    D5       -1.09367   0.00079   0.00000   0.01125   0.01126  -1.08242
    D6        1.09307  -0.00134   0.00000  -0.02091  -0.02100   1.07207
    D7        1.03301   0.00059   0.00000   0.00989   0.00997   1.04298
    D8        3.08794   0.00118   0.00000   0.01769   0.01774   3.10568
    D9       -1.00850  -0.00094   0.00000  -0.01447  -0.01452  -1.02302
   D10        1.12468  -0.00025   0.00000  -0.00564  -0.00559   1.11909
   D11       -0.92098   0.00057   0.00000   0.01101   0.01109  -0.90989
   D12       -3.01705  -0.00051   0.00000  -0.01284  -0.01272  -3.02978
   D13       -3.11678   0.00032   0.00000   0.01522   0.01516  -3.10162
   D14        1.12074   0.00114   0.00000   0.03186   0.03184   1.15258
   D15       -0.97533   0.00006   0.00000   0.00801   0.00803  -0.96730
   D16       -1.03235  -0.00042   0.00000   0.01037   0.01027  -1.02208
   D17       -3.07801   0.00040   0.00000   0.02702   0.02695  -3.05106
   D18        1.10910  -0.00068   0.00000   0.00317   0.00314   1.11224
   D19        2.99558   0.00136   0.00000   0.03485   0.03490   3.03048
   D20       -1.17823   0.00077   0.00000   0.02510   0.02509  -1.15313
   D21        0.92283   0.00062   0.00000   0.02275   0.02274   0.94557
   D22        0.96181  -0.00025   0.00000   0.00207   0.00208   0.96389
   D23        3.07119  -0.00083   0.00000  -0.00769  -0.00772   3.06346
   D24       -1.11094  -0.00098   0.00000  -0.01003  -0.01007  -1.12101
   D25       -1.12780   0.00041   0.00000   0.01132   0.01136  -1.11643
   D26        0.98158  -0.00017   0.00000   0.00156   0.00156   0.98314
   D27        3.08264  -0.00032   0.00000  -0.00078  -0.00079   3.08185
   D28        0.90724  -0.00077   0.00000  -0.00156  -0.00155   0.90569
   D29       -1.17388   0.00176   0.00000   0.04004   0.03996  -1.13392
   D30        3.01431   0.00020   0.00000   0.01529   0.01527   3.02957
   D31        3.05308  -0.00135   0.00000  -0.01285  -0.01284   3.04024
   D32        0.97196   0.00118   0.00000   0.02875   0.02867   1.00063
   D33       -1.12303  -0.00038   0.00000   0.00401   0.00398  -1.11906
   D34       -1.19302  -0.00118   0.00000  -0.01835  -0.01823  -1.21125
   D35        3.00905   0.00135   0.00000   0.02326   0.02327   3.03232
   D36        0.91405  -0.00021   0.00000  -0.00149  -0.00142   0.91263
   D37        1.02861  -0.00024   0.00000  -0.00176  -0.00178   1.02683
   D38        3.11751  -0.00011   0.00000   0.00049   0.00049   3.11800
   D39       -1.07911   0.00016   0.00000   0.00482   0.00487  -1.07424
   D40       -3.13617  -0.00012   0.00000   0.00337   0.00332  -3.13285
   D41       -1.04727   0.00001   0.00000   0.00563   0.00559  -1.04168
   D42        1.03930   0.00028   0.00000   0.00996   0.00997   1.04926
   D43       -1.08584  -0.00015   0.00000  -0.00816  -0.00816  -1.09400
   D44        1.00307  -0.00002   0.00000  -0.00590  -0.00589   0.99717
   D45        3.08963   0.00025   0.00000  -0.00157  -0.00151   3.08811
         Item               Value     Threshold  Converged?
 Maximum Force            0.010708     0.000450     NO 
 RMS     Force            0.003598     0.000300     NO 
 Maximum Displacement     0.133761     0.001800     NO 
 RMS     Displacement     0.034131     0.001200     NO 
 Predicted change in Energy=-2.582147D-03
 GradGradGradGradGradGradGradGradGradGradGradGradGradGradGradGradGradGrad

 Leave Link  103 at Mon Sep 14 19:12:17 2015, MaxMem=  402653184 cpu:       0.3
 (Enter /share/apps/g09/l202.exe)
                          Input orientation:                          
 ---------------------------------------------------------------------
 Center     Atomic      Atomic             Coordinates (Angstroms)
 Number     Number       Type             X           Y           Z
 ---------------------------------------------------------------------
      1          6           0        2.156880   -0.322235    0.553754
      2          1           0        2.093691   -1.396796    0.767530
      3          1           0        2.171609    0.209931    1.513054
      4          1           0        3.119299   -0.142964    0.058362
      5          6           0        0.986982    0.142647   -0.327652
      6          1           0        1.022803   -0.427674   -1.290031
      7          6           0       -0.346648   -0.168004    0.369757
      8          1           0       -0.420685    0.418825    1.305383
      9          1           0       -0.357894   -1.237444    0.664431
     10          6           0       -1.562570    0.123997   -0.515074
     11          1           0       -1.437826   -0.380660   -1.493865
     12          1           0       -1.618617    1.212153   -0.719152
     13          6           0       -2.869349   -0.338686    0.137433
     14          1           0       -3.027442    0.150722    1.107198
     15          1           0       -3.730389   -0.099337   -0.500577
     16          1           0       -2.872449   -1.423561    0.305539
     17          6           0        1.122272    1.634584   -0.647803
     18          1           0        0.358573    1.956021   -1.366572
     19          1           0        1.014073    2.247013    0.255530
     20          1           0        2.101386    1.857869   -1.090345
 ---------------------------------------------------------------------
                    Distance matrix (angstroms):
                    1          2          3          4          5
     1  C    0.000000
     2  H    1.097439   0.000000
     3  H    1.097120   1.772977   0.000000
     4  H    1.097179   1.768300   1.771660   0.000000
     5  C    1.536767   2.189546   2.189992   2.185716   0.000000
     6  H    2.167208   2.513872   3.095735   2.508887   1.119250
     7  C    2.515013   2.761052   2.791340   3.479997   1.536702
     8  H    2.785310   3.147674   2.608975   3.795017   2.173615
     9  H    2.678421   2.458921   3.035365   3.695413   2.167388
    10  C    3.895616   4.162467   4.250268   4.724404   2.556500
    11  H    4.137398   4.314864   4.734805   4.820092   2.741094
    12  H    4.269544   4.774732   4.511430   4.988859   2.843635
    13  C    5.043468   5.113550   5.254006   5.992367   3.913985
    14  H    5.235186   5.360615   5.215204   6.242494   4.263152
    15  H    5.985083   6.100115   6.243711   6.872593   4.726738
    16  H    5.154481   4.987655   5.437730   6.132053   4.212975
    17  C    2.518590   3.483689   2.792856   2.765224   1.531886
    18  H    3.480231   4.336635   3.824679   3.749371   2.182333
    19  H    2.827716   3.834718   2.659127   3.191056   2.183847
    20  H    2.731116   3.747613   3.081934   2.521707   2.183021
                    6          7          8          9         10
     6  H    0.000000
     7  C    2.167422   0.000000
     8  H    3.088104   1.106908   0.000000
     9  H    2.526256   1.109351   1.777073   0.000000
    10  C    2.754824   1.531880   2.169075   2.167024   0.000000
    11  H    2.469505   2.170018   3.083754   2.560971   1.108274
    12  H    3.161018   2.169899   2.482569   3.082895   1.108545
    13  C    4.146616   2.539120   2.816716   2.718989   1.532160
    14  H    4.741912   2.798582   2.627991   3.041304   2.185939
    15  H    4.829480   3.494553   3.805801   3.745163   2.179341
    16  H    4.325578   2.821386   3.225713   2.546847   2.187265
    17  C    2.162235   2.538204   2.770148   3.487319   3.083483
    18  H    2.475694   2.832606   3.179552   3.851819   2.787858
    19  H    3.089139   2.774332   2.550096   3.767085   3.426385
    20  H    2.535137   3.496989   3.764466   4.325304   4.094121
                   11         12         13         14         15
    11  H    0.000000
    12  H    1.780426   0.000000
    13  C    2.170750   2.168679   0.000000
    14  H    3.094314   2.539090   1.097706   0.000000
    15  H    2.514281   2.495468   1.098059   1.772458   0.000000
    16  H    2.526588   3.093393   1.097827   1.773428   1.771850
    17  C    3.366174   2.774168   4.521441   4.743627   5.155237
    18  H    2.950140   2.209473   4.236412   4.565494   4.657687
    19  H    3.997105   2.991988   4.666985   4.631805   5.346678
    20  H    4.207120   3.793831   5.571401   5.835103   6.179650
                   16         17         18         19         20
    16  H    0.000000
    17  C    5.120441   0.000000
    18  H    4.965585   1.096898   0.000000
    19  H    5.346089   1.096716   1.773576   0.000000
    20  H    6.120075   1.097436   1.767296   1.773433   0.000000
 Stoichiometry    C6H14
 Framework group  C1[X(C6H14)]
 Deg. of freedom    54
 Full point group                 C1      NOp   1
 Largest Abelian subgroup         C1      NOp   1
 Largest concise Abelian subgroup C1      NOp   1
                         Standard orientation:                         
 ---------------------------------------------------------------------
 Center     Atomic      Atomic             Coordinates (Angstroms)
 Number     Number       Type             X           Y           Z
 ---------------------------------------------------------------------
      1          6           0        2.158641   -1.019873    0.030516
      2          1           0        1.942046   -2.017027   -0.373394
      3          1           0        2.261625   -1.114277    1.118704
      4          1           0        3.131216   -0.708306   -0.370516
      5          6           0        1.058993   -0.013669   -0.343624
      6          1           0        1.000425    0.045167   -1.459791
      7          6           0       -0.297651   -0.502783    0.187167
      8          1           0       -0.274788   -0.528790    1.293533
      9          1           0       -0.461196   -1.546510   -0.151281
     10          6           0       -1.468049    0.368071   -0.280206
     11          1           0       -1.429270    0.479912   -1.382141
     12          1           0       -1.367320    1.384778    0.149949
     13          6           0       -2.820785   -0.224605    0.127660
     14          1           0       -2.894878   -0.340182    1.216747
     15          1           0       -3.644973    0.425267   -0.195007
     16          1           0       -2.979958   -1.211874   -0.325318
     17          6           0        1.406499    1.378257    0.193459
     18          1           0        0.689646    2.129357   -0.160317
     19          1           0        1.398929    1.395178    1.290018
     20          1           0        2.402602    1.694912   -0.141018
 ---------------------------------------------------------------------
 Rotational constants (GHZ):      6.5974057      1.7260711      1.4815310
 Leave Link  202 at Mon Sep 14 19:12:17 2015, MaxMem=  402653184 cpu:       0.0
 (Enter /share/apps/g09/l301.exe)
 Standard basis: VSTO-6G (5D, 7F)
 Ernie: Thresh=  0.10000D-02 Tol=  0.10000D-05 Strict=F.
  NNHCO=     0 NNPyr=     0 NCTC=     0               EPep=         0.000000000
    EC=       128.262587536  ECS=         3.228156913   EG=         0.307125577
   EHC=         0.000459526  EAt=       -31.187935768  AtH=         2.796400831
 EPDDG=         0.000000000  ECC=       131.798329551 EAtT=        33.984336599
 There are    38 symmetry adapted basis functions of A   symmetry.
 Integral buffers will be    131072 words long.
 Regular integral format.
 Two-electron integral symmetry is turned off.
    38 basis functions,   228 primitive gaussians,    38 cartesian basis functions
    19 alpha electrons       19 beta electrons
       nuclear repulsion energy       165.7826661502 Hartrees.
 IExCor=    0 DFT=F Ex=HF Corr=None ExCW=0 ScaHFX=  1.000000
 ScaDFX=  1.000000  1.000000  1.000000  1.000000 ScalE2=  1.000000  1.000000
 IRadAn=      0 IRanWt=     -1 IRanGd=            0 ICorTp=0
 Leave Link  301 at Mon Sep 14 19:12:17 2015, MaxMem=  402653184 cpu:       0.1
 (Enter /share/apps/g09/l302.exe)
 Do NDO integrals.
 NPDir=0 NMtPBC=     1 NCelOv=     1 NCel=       1 NClECP=     1 NCelD=      1
         NCelK=      1 NCelE2=     1 NClLst=     1 CellRange=     0.0.
 One-electron integrals computed using PRISM.
 NBasis=    38 RedAO= F  NBF=    38
 NBsUse=    38 1.00D-04 NBFU=    38
 Leave Link  302 at Mon Sep 14 19:12:17 2015, MaxMem=  402653184 cpu:       0.1
 (Enter /share/apps/g09/l303.exe)
 DipDrv:  MaxL=1.
 Leave Link  303 at Mon Sep 14 19:12:17 2015, MaxMem=  402653184 cpu:       0.0
 (Enter /share/apps/g09/l401.exe)
 Initial guess read from the read-write file.
 B after Tr=     0.000000    0.000000    0.000000
         Rot=    1.000000    0.000000    0.000000    0.000000 Ang=   0.00 deg.
 Guess basis will be translated and rotated to current coordinates.
 Initial guess orbital symmetries:
       Occupied  (A) (A) (A) (A) (A) (A) (A) (A) (A) (A) (A) (A)
                 (A) (A) (A) (A) (A) (A) (A)
       Virtual   (A) (A) (A) (A) (A) (A) (A) (A) (A) (A) (A) (A)
                 (A) (A) (A) (A) (A) (A) (A)
 The electronic state of the initial guess is 1-A.
 Leave Link  401 at Mon Sep 14 19:12:17 2015, MaxMem=  402653184 cpu:       0.2
 (Enter /share/apps/g09/l502.exe)
 Closed shell SCF:
 Requested convergence on RMS density matrix=1.00D-08 within 128 cycles.
 Requested convergence on MAX density matrix=1.00D-06.
 Requested convergence on             energy=1.00D-06.
 No special actions if energy rises.
 Using DIIS extrapolation, IDIIS=  1040.
 Overlap will be assumed to be unity.
 Two-electron integral symmetry not used.
 Keep J ints in memory in canonical form, NReq=884654.
 IEnd=       81865 IEndB=       81865 NGot=   402653184 MDV=   402586639
 LenX=   402586639 LenY=   402584754
 Symmetry not used in FoFDir.
 MinBra= 0 MaxBra= 1 Meth=40.
 IRaf=       0 NMat=   1 IRICut=       1 DoRegI=T DoRafI=F ISym2E= 0 JSym2E=0.

 Cycle   1  Pass 1  IDiag  1:
 E=-0.562989583005731E-01
 DIIS: error= 3.85D-03 at cycle   1 NSaved=   1.
 NSaved= 1 IEnMin= 1 EnMin=-0.562989583005731E-01 IErMin= 1 ErrMin= 3.85D-03
 ErrMax= 3.85D-03 EMaxC= 1.00D-01 BMatC= 4.19D-04 BMatP= 4.19D-04
 IDIUse=3 WtCom= 9.62D-01 WtEn= 3.85D-02
 Coeff-Com:  0.100D+01
 Coeff-En:   0.100D+01
 Coeff:      0.100D+01
 GapD=    2.000 DampG=2.000 DampE=1.000 DampFc=2.0000 IDamp=-1.
 RMSDP=9.75D-04 MaxDP=9.77D-03              OVMax= 0.00D+00

 Cycle   2  Pass 1  IDiag  3:
 E=-0.577758645833057E-01 Delta-E=       -0.001476906283 Rises=F Damp=F
 DIIS: error= 1.69D-03 at cycle   2 NSaved=   2.
 NSaved= 2 IEnMin= 2 EnMin=-0.577758645833057E-01 IErMin= 2 ErrMin= 1.69D-03
 ErrMax= 1.69D-03 EMaxC= 1.00D-01 BMatC= 6.66D-05 BMatP= 4.19D-04
 IDIUse=3 WtCom= 9.83D-01 WtEn= 1.69D-02
 Coeff-Com: -0.596D+00 0.160D+01
 Coeff-En:   0.000D+00 0.100D+01
 Coeff:     -0.586D+00 0.159D+01
 Gap=     0.557 Goal=   None    Shift=    0.000
 RMSDP=6.60D-04 MaxDP=6.90D-03 DE=-1.48D-03 OVMax= 0.00D+00

 Cycle   3  Pass 1  IDiag  3:
 E=-0.580924086974903E-01 Delta-E=       -0.000316544114 Rises=F Damp=F
 DIIS: error= 2.07D-04 at cycle   3 NSaved=   3.
 NSaved= 3 IEnMin= 3 EnMin=-0.580924086974903E-01 IErMin= 3 ErrMin= 2.07D-04
 ErrMax= 2.07D-04 EMaxC= 1.00D-01 BMatC= 1.28D-06 BMatP= 6.66D-05
 IDIUse=3 WtCom= 9.98D-01 WtEn= 2.07D-03
 Coeff-Com:  0.231D+00-0.697D+00 0.147D+01
 Coeff-En:   0.000D+00 0.000D+00 0.100D+01
 Coeff:      0.231D+00-0.695D+00 0.146D+01
 Gap=     0.558 Goal=   None    Shift=    0.000
 RMSDP=1.04D-04 MaxDP=1.01D-03 DE=-3.17D-04 OVMax= 0.00D+00

 Cycle   4  Pass 1  IDiag  3:
 E=-0.580991343014716E-01 Delta-E=       -0.000006725604 Rises=F Damp=F
 DIIS: error= 2.78D-05 at cycle   4 NSaved=   4.
 NSaved= 4 IEnMin= 4 EnMin=-0.580991343014716E-01 IErMin= 4 ErrMin= 2.78D-05
 ErrMax= 2.78D-05 EMaxC= 1.00D-01 BMatC= 4.36D-08 BMatP= 1.28D-06
 IDIUse=1 WtCom= 1.00D+00 WtEn= 0.00D+00
 Coeff-Com: -0.128D+00 0.390D+00-0.875D+00 0.161D+01
 Coeff:     -0.128D+00 0.390D+00-0.875D+00 0.161D+01
 Gap=     0.558 Goal=   None    Shift=    0.000
 RMSDP=2.02D-05 MaxDP=1.94D-04 DE=-6.73D-06 OVMax= 0.00D+00

 Cycle   5  Pass 1  IDiag  3:
 E=-0.580994376326487E-01 Delta-E=       -0.000000303331 Rises=F Damp=F
 DIIS: error= 1.22D-05 at cycle   5 NSaved=   5.
 NSaved= 5 IEnMin= 5 EnMin=-0.580994376326487E-01 IErMin= 5 ErrMin= 1.22D-05
 ErrMax= 1.22D-05 EMaxC= 1.00D-01 BMatC= 7.66D-09 BMatP= 4.36D-08
 IDIUse=1 WtCom= 1.00D+00 WtEn= 0.00D+00
 Coeff-Com:  0.958D-01-0.292D+00 0.667D+00-0.157D+01 0.210D+01
 Coeff:      0.958D-01-0.292D+00 0.667D+00-0.157D+01 0.210D+01
 Gap=     0.558 Goal=   None    Shift=    0.000
 RMSDP=1.29D-05 MaxDP=1.38D-04 DE=-3.03D-07 OVMax= 0.00D+00

 Cycle   6  Pass 1  IDiag  3:
 E=-0.580995074055295E-01 Delta-E=       -0.000000069773 Rises=F Damp=F
 DIIS: error= 3.20D-06 at cycle   6 NSaved=   6.
 NSaved= 6 IEnMin= 6 EnMin=-0.580995074055295E-01 IErMin= 6 ErrMin= 3.20D-06
 ErrMax= 3.20D-06 EMaxC= 1.00D-01 BMatC= 4.80D-10 BMatP= 7.66D-09
 IDIUse=1 WtCom= 1.00D+00 WtEn= 0.00D+00
 Coeff-Com: -0.490D-01 0.149D+00-0.343D+00 0.852D+00-0.134D+01 0.173D+01
 Coeff:     -0.490D-01 0.149D+00-0.343D+00 0.852D+00-0.134D+01 0.173D+01
 Gap=     0.558 Goal=   None    Shift=    0.000
 RMSDP=3.14D-06 MaxDP=3.53D-05 DE=-6.98D-08 OVMax= 0.00D+00

 Cycle   7  Pass 1  IDiag  3:
 E=-0.580995113309655E-01 Delta-E=       -0.000000003925 Rises=F Damp=F
 DIIS: error= 5.14D-07 at cycle   7 NSaved=   7.
 NSaved= 7 IEnMin= 7 EnMin=-0.580995113309655E-01 IErMin= 7 ErrMin= 5.14D-07
 ErrMax= 5.14D-07 EMaxC= 1.00D-01 BMatC= 1.82D-11 BMatP= 4.80D-10
 IDIUse=1 WtCom= 1.00D+00 WtEn= 0.00D+00
 Coeff-Com:  0.158D-01-0.480D-01 0.111D+00-0.278D+00 0.457D+00-0.726D+00
 Coeff-Com:  0.147D+01
 Coeff:      0.158D-01-0.480D-01 0.111D+00-0.278D+00 0.457D+00-0.726D+00
 Coeff:      0.147D+01
 Gap=     0.558 Goal=   None    Shift=    0.000
 RMSDP=4.72D-07 MaxDP=5.45D-06 DE=-3.93D-09 OVMax= 0.00D+00

 Cycle   8  Pass 1  IDiag  3:
 E=-0.580995114491998E-01 Delta-E=       -0.000000000118 Rises=F Damp=F
 DIIS: error= 1.47D-07 at cycle   8 NSaved=   8.
 NSaved= 8 IEnMin= 8 EnMin=-0.580995114491998E-01 IErMin= 8 ErrMin= 1.47D-07
 ErrMax= 1.47D-07 EMaxC= 1.00D-01 BMatC= 9.98D-13 BMatP= 1.82D-11
 IDIUse=1 WtCom= 1.00D+00 WtEn= 0.00D+00
 Coeff-Com: -0.394D-02 0.120D-01-0.276D-01 0.700D-01-0.117D+00 0.200D+00
 Coeff-Com: -0.568D+00 0.144D+01
 Coeff:     -0.394D-02 0.120D-01-0.276D-01 0.700D-01-0.117D+00 0.200D+00
 Coeff:     -0.568D+00 0.144D+01
 Gap=     0.558 Goal=   None    Shift=    0.000
 RMSDP=1.01D-07 MaxDP=1.05D-06 DE=-1.18D-10 OVMax= 0.00D+00

 Cycle   9  Pass 1  IDiag  3:
 E=-0.580995114552252E-01 Delta-E=       -0.000000000006 Rises=F Damp=F
 DIIS: error= 4.54D-08 at cycle   9 NSaved=   9.
 NSaved= 9 IEnMin= 9 EnMin=-0.580995114552252E-01 IErMin= 9 ErrMin= 4.54D-08
 ErrMax= 4.54D-08 EMaxC= 1.00D-01 BMatC= 8.64D-14 BMatP= 9.98D-13
 IDIUse=1 WtCom= 1.00D+00 WtEn= 0.00D+00
 Coeff-Com:  0.671D-03-0.203D-02 0.469D-02-0.122D-01 0.214D-01-0.408D-01
 Coeff-Com:  0.164D+00-0.687D+00 0.155D+01
 Coeff:      0.671D-03-0.203D-02 0.469D-02-0.122D-01 0.214D-01-0.408D-01
 Coeff:      0.164D+00-0.687D+00 0.155D+01
 Gap=     0.558 Goal=   None    Shift=    0.000
 RMSDP=3.04D-08 MaxDP=3.51D-07 DE=-6.03D-12 OVMax= 0.00D+00

 Cycle  10  Pass 1  IDiag  3:
 E=-0.580995114561347E-01 Delta-E=       -0.000000000001 Rises=F Damp=F
 DIIS: error= 1.07D-08 at cycle  10 NSaved=  10.
 NSaved=10 IEnMin=10 EnMin=-0.580995114561347E-01 IErMin=10 ErrMin= 1.07D-08
 ErrMax= 1.07D-08 EMaxC= 1.00D-01 BMatC= 6.57D-15 BMatP= 8.64D-14
 IDIUse=1 WtCom= 1.00D+00 WtEn= 0.00D+00
 Coeff-Com: -0.989D-04 0.298D-03-0.687D-03 0.192D-02-0.377D-02 0.871D-02
 Coeff-Com: -0.496D-01 0.268D+00-0.827D+00 0.160D+01
 Coeff:     -0.989D-04 0.298D-03-0.687D-03 0.192D-02-0.377D-02 0.871D-02
 Coeff:     -0.496D-01 0.268D+00-0.827D+00 0.160D+01
 Gap=     0.558 Goal=   None    Shift=    0.000
 RMSDP=8.80D-09 MaxDP=8.42D-08 DE=-9.09D-13 OVMax= 0.00D+00

 Cycle  11  Pass 2  IDiag  1:
 RMSDP=8.80D-09 MaxDP=8.42D-08 DE=-9.09D-13 OVMax= 0.00D+00

 SCF Done:  E(RPM6) = -0.580995114561E-01 A.U. after   11 cycles
             Convg  =    0.8802D-08             -V/T =  0.9990
 KE=-5.622627128129D+01 PE=-2.524613548116D+02 EE= 1.428468604312D+02
 Leave Link  502 at Mon Sep 14 19:12:18 2015, MaxMem=  402653184 cpu:       0.1
 (Enter /share/apps/g09/l701.exe)
 Compute integral first derivatives.
 ... and contract with generalized density number  0.
 Leave Link  701 at Mon Sep 14 19:12:18 2015, MaxMem=  402653184 cpu:       0.1
 (Enter /share/apps/g09/l702.exe)
 L702 exits ... SP integral derivatives will be done elsewhere.
 Leave Link  702 at Mon Sep 14 19:12:19 2015, MaxMem=  402653184 cpu:       0.0
 (Enter /share/apps/g09/l703.exe)
 Compute integral first derivatives, UseDBF=F ICtDFT=           0.
 Integral derivatives from FoFDir, PRISM(SPDF).
 Calling FoFJK, ICntrl=      2127 FMM=F ISym2X=0 I1Cent= 0 IOpClX= 0 NMat=1 NMatS=1 NMatT=0.
 FoFCou: FMM=F IPFlag=           0 FMFlag=      100000 FMFlg1=         800
         NFxFlg=           0 DoJE=F BraDBF=F KetDBF=F FulRan=T
         Omega=  0.000000  0.000000  1.000000  0.000000  0.000000 ICntrl=    2127 IOpCl=  0
         NMat0=    1 NMatS0=    1 NMatT0=    0 NMatD0=    1 NMtDS0=    0 NMtDT0=    0
         I1Cent=           0 NGrid=           0.
 Symmetry not used in FoFCou.
 Leave Link  703 at Mon Sep 14 19:12:20 2015, MaxMem=  402653184 cpu:       0.0
 (Enter /share/apps/g09/l716.exe)
 Dipole        = 7.50381191D-03-8.62166951D-03 3.10710955D-02
 ***** Axes restored to original set *****
 -------------------------------------------------------------------
 Center     Atomic                   Forces (Hartrees/Bohr)
 Number     Number              X              Y              Z
 -------------------------------------------------------------------
      1        6           0.000318614   -0.000704116   -0.000466728
      2        1           0.000244141    0.001476789    0.000046434
      3        1           0.000438920   -0.000808972   -0.000987591
      4        1          -0.000909787   -0.000069959    0.000969761
      5        6           0.003043389   -0.000726934   -0.001768081
      6        1           0.000528645   -0.000040797   -0.000005577
      7        6          -0.002211174   -0.001539968    0.002913279
      8        1          -0.000336297   -0.001280521    0.000645024
      9        1          -0.000261110    0.001144448    0.001124231
     10        6          -0.003022054   -0.000898895    0.000146113
     11        1          -0.000699422    0.001108824   -0.000090796
     12        1          -0.000285637   -0.000733447   -0.001065126
     13        6           0.001592823    0.000706960   -0.001219069
     14        1          -0.000016811   -0.000886601   -0.001067606
     15        1           0.000919380   -0.000469971    0.001135208
     16        1          -0.000167843    0.001459278    0.000086308
     17        6           0.001023404    0.001414273   -0.000940189
     18        1           0.000591990    0.000412663    0.000962675
     19        1           0.000303449    0.000183676   -0.001231567
     20        1          -0.001094620    0.000253267    0.000813299
 -------------------------------------------------------------------
 Cartesian Forces:  Max     0.003043389 RMS     0.001108809
 Leave Link  716 at Mon Sep 14 19:12:21 2015, MaxMem=  402653184 cpu:       0.0
 (Enter /share/apps/g09/l103.exe)

 GradGradGradGradGradGradGradGradGradGradGradGradGradGradGradGradGradGrad
 Berny optimization.
 Using GEDIIS/GDIIS optimizer.
 Internal  Forces:  Max     0.005359422 RMS     0.000878628
 Search for a local minimum.
 Step number   2 out of a maximum of  110
 All quantities printed in internal units (Hartrees-Bohrs-Radians)
 RMS Force = .87863D-03 SwitMx=.10000D-02 MixMth= 2
 Mixed Optimization -- En-DIIS/RFO-DIIS
 Update second derivatives using D2CorX and points    1    2
 DE= -2.72D-03 DEPred=-2.58D-03 R= 1.05D+00
 SS=  1.41D+00  RLast= 1.74D-01 DXNew= 5.0454D-01 5.2315D-01
 Trust test= 1.05D+00 RLast= 1.74D-01 DXMaxT set to 5.05D-01
 Use linear search instead of GDIIS.
     Eigenvalues ---    0.00229   0.00278   0.00281   0.00288   0.00411
     Eigenvalues ---    0.03444   0.03591   0.03619   0.04610   0.04695
     Eigenvalues ---    0.04806   0.04851   0.05393   0.05407   0.05432
     Eigenvalues ---    0.05448   0.05472   0.05550   0.08276   0.08389
     Eigenvalues ---    0.12102   0.12203   0.15051   0.16000   0.16000
     Eigenvalues ---    0.16000   0.16000   0.16000   0.16000   0.16000
     Eigenvalues ---    0.16055   0.16536   0.16764   0.21278   0.21975
     Eigenvalues ---    0.26668   0.28577   0.28807   0.28861   0.29516
     Eigenvalues ---    0.31969   0.32010   0.32022   0.32125   0.32147
     Eigenvalues ---    0.32158   0.32172   0.32179   0.32190   0.32200
     Eigenvalues ---    0.32215   0.32221   0.32290   0.348741000.00000
     Eigenvalues --- 1000.000001000.000001000.000001000.000001000.00000
     Eigenvalues --- 1000.000001000.000001000.000001000.000001000.00000
     Eigenvalues --- 1000.000001000.000001000.000001000.000001000.00000
     Eigenvalues --- 1000.000001000.000001000.000001000.000001000.00000
     Eigenvalues --- 1000.000001000.000001000.000001000.000001000.00000
     Eigenvalues --- 1000.000001000.000001000.000001000.000001000.00000
     Eigenvalues --- 1000.000001000.000001000.000001000.000001000.00000
     Eigenvalues --- 1000.000001000.000001000.000001000.000001000.00000
     Eigenvalues --- 1000.000001000.000001000.000001000.000001000.00000
 RFO step:  Lambda=-4.81267565D-04 EMin= 2.28986705D-03
 Quartic linear search produced a step of  0.08196.
 Iteration  1 RMS(Cart)=  0.04095153 RMS(Int)=  0.00066091
 Iteration  2 RMS(Cart)=  0.00082537 RMS(Int)=  0.00001279
 Iteration  3 RMS(Cart)=  0.00000032 RMS(Int)=  0.00001279
 Variable       Old X    -DE/DX   Delta X   Delta X   Delta X     New X
                                 (Linear)    (Quad)   (Total)
    R1        2.07386  -0.00145  -0.00256  -0.00506  -0.00762   2.06624
    R2        2.07326  -0.00125  -0.00267  -0.00440  -0.00707   2.06619
    R3        2.07337  -0.00125  -0.00262  -0.00438  -0.00700   2.06637
    R4        2.90407  -0.00015   0.00009  -0.00055  -0.00046   2.90361
    R5        2.11508   0.00004   0.00056   0.00019   0.00074   2.11582
    R6        2.90395   0.00536  -0.00137   0.02053   0.01916   2.92311
    R7        2.89485   0.00236  -0.00078   0.00879   0.00801   2.90286
    R8        2.09175  -0.00011  -0.00132  -0.00047  -0.00180   2.08996
    R9        2.09637  -0.00080  -0.00099  -0.00278  -0.00377   2.09260
   R10        2.89483   0.00259  -0.00074   0.00963   0.00890   2.90373
   R11        2.09433  -0.00050  -0.00097  -0.00176  -0.00274   2.09160
   R12        2.09485  -0.00051  -0.00079  -0.00177  -0.00256   2.09229
   R13        2.89536  -0.00268   0.00082  -0.00968  -0.00886   2.88650
   R14        2.07436  -0.00134  -0.00249  -0.00467  -0.00716   2.06721
   R15        2.07503  -0.00148  -0.00240  -0.00515  -0.00755   2.06748
   R16        2.07459  -0.00143  -0.00248  -0.00498  -0.00746   2.06713
   R17        2.07284  -0.00092  -0.00245  -0.00327  -0.00572   2.06712
   R18        2.07249  -0.00094  -0.00269  -0.00336  -0.00605   2.06644
   R19        2.07385  -0.00125  -0.00257  -0.00440  -0.00697   2.06689
    A1        1.88115  -0.00046  -0.00134  -0.00341  -0.00476   1.87638
    A2        1.87386  -0.00021  -0.00073  -0.00017  -0.00092   1.87294
    A3        1.94345   0.00030   0.00137   0.00261   0.00395   1.94741
    A4        1.87944  -0.00055  -0.00149  -0.00478  -0.00627   1.87317
    A5        1.94441   0.00051   0.00108   0.00280   0.00387   1.94828
    A6        1.93840   0.00034   0.00095   0.00245   0.00338   1.94178
    A7        1.89088  -0.00014   0.00173  -0.00711  -0.00540   1.88549
    A8        1.91689   0.00002  -0.00068   0.00085   0.00018   1.91706
[...]
     16          1           0       -2.885933   -1.359621    0.472834
     17          6           0        1.134722    1.678637   -0.575330
     18          1           0        0.312114    2.067607   -1.184993
     19          1           0        1.140357    2.242512    0.363489
     20          1           0        2.069365    1.903897   -1.098878
 ---------------------------------------------------------------------
                    Distance matrix (angstroms):
                    1          2          3          4          5
     1  C    0.000000
     2  H    1.094753   0.000000
     3  H    1.095141   1.766474   0.000000
     4  H    1.095070   1.765146   1.763997   0.000000
     5  C    1.535532   2.188205   2.190230   2.185048   0.000000
     6  H    2.163275   2.499848   3.092552   2.518494   1.118622
     7  C    2.523226   2.784495   2.786167   3.487575   1.543569
     8  H    2.859036   3.267128   2.684397   3.844054   2.183317
     9  H    2.640312   2.448877   2.929333   3.680459   2.179165
    10  C    3.887888   4.126142   4.270836   4.717365   2.557595
    11  H    4.110084   4.206985   4.731340   4.817701   2.782374
    12  H    4.266659   4.741167   4.592782   4.960330   2.799842
    13  C    5.043984   5.123880   5.248585   5.993545   3.914708
    14  H    5.264643   5.443807   5.244019   6.251781   4.246040
    15  H    5.979323   6.078998   6.252902   6.868036   4.728120
    16  H    5.142607   4.990293   5.370071   6.142862   4.237341
    17  C    2.518879   3.482563   2.809199   2.750717   1.534280
    18  H    3.482877   4.339619   3.816513   3.765082   2.185585
    19  H    2.788995   3.811795   2.634641   3.104489   2.188787
    20  H    2.772412   3.769053   3.167595   2.552073   2.184863
                    6          7          8          9         10
     6  H    0.000000
     7  C    2.175066   0.000000
     8  H    3.091933   1.105952   0.000000
     9  H    2.596511   1.106918   1.761667   0.000000
    10  C    2.700074   1.534574   2.176082   2.169816   0.000000
    11  H    2.458001   2.176375   3.093008   2.538785   1.107518
    12  H    2.994427   2.176352   2.536946   3.089029   1.107947
    13  C    4.140175   2.534586   2.771964   2.753532   1.527456
    14  H    4.717212   2.802614   2.587127   3.110810   2.182821
    15  H    4.798252   3.492302   3.779810   3.765264   2.177857
    16  H    4.398545   2.806149   3.137729   2.570713   2.183257
    17  C    2.164414   2.542658   2.724646   3.485687   3.157598
    18  H    2.518103   2.791285   3.026846   3.843613   2.834298
    19  H    3.093094   2.823274   2.555059   3.759526   3.609495
    20  H    2.503281   3.501834   3.754743   4.332255   4.118621
                   11         12         13         14         15
    11  H    0.000000
    12  H    1.767615   0.000000
    13  C    2.168107   2.167949   0.000000
    14  H    3.091456   2.537665   1.095851   0.000000
    15  H    2.506171   2.503666   1.095508   1.766652   0.000000
    16  H    2.536471   3.091698   1.095799   1.765739   1.766561
    17  C    3.547055   2.819169   4.533527   4.674016   5.205010
    18  H    3.198779   2.166336   4.192724   4.379538   4.667507
    19  H    4.247809   3.241269   4.765571   4.652081   5.510257
    20  H    4.322398   3.763007   5.557696   5.756330   6.185400
                   16         17         18         19         20
    16  H    0.000000
    17  C    5.147361   0.000000
    18  H    4.972100   1.095295   0.000000
    19  H    5.403548   1.095156   1.764759   0.000000
    20  H    6.138062   1.094716   1.766960   1.765285   0.000000
 Stoichiometry    C6H14
 Framework group  C1[X(C6H14)]
 Deg. of freedom    54
 Full point group                 C1      NOp   1
 Largest Abelian subgroup         C1      NOp   1
 Largest concise Abelian subgroup C1      NOp   1
                         Standard orientation:                         
 ---------------------------------------------------------------------
 Center     Atomic      Atomic             Coordinates (Angstroms)
 Number     Number       Type             X           Y           Z
 ---------------------------------------------------------------------
      1          6           0        2.150165   -1.028734    0.015649
      2          1           0        1.931998   -2.011946   -0.413515
      3          1           0        2.252757   -1.156654    1.098444
      4          1           0        3.125501   -0.712223   -0.368691
      5          6           0        1.057451   -0.007729   -0.332751
      6          1           0        0.983562    0.057242   -1.447037
      7          6           0       -0.303697   -0.478702    0.222287
      8          1           0       -0.310536   -0.392286    1.324837
      9          1           0       -0.436821   -1.556664    0.008878
     10          6           0       -1.480369    0.307327   -0.371443
     11          1           0       -1.468496    0.225630   -1.475880
     12          1           0       -1.363745    1.385914   -0.146507
     13          6           0       -2.820985   -0.188237    0.167341
     14          1           0       -2.878876   -0.088528    1.257110
     15          1           0       -3.654093    0.380969   -0.259357
     16          1           0       -2.987152   -1.244259   -0.073454
     17          6           0        1.433101    1.378291    0.207482
     18          1           0        0.670449    2.123645   -0.042479
     19          1           0        1.538018    1.371354    1.297579
     20          1           0        2.383438    1.724507   -0.211322
 ---------------------------------------------------------------------
 Rotational constants (GHZ):      6.5681200      1.7114038      1.4806403
 Leave Link  202 at Mon Sep 14 19:13:58 2015, MaxMem=  402653184 cpu:       0.0
 (Enter /share/apps/g09/l601.exe)
 Copying SCF densities to generalized density rwf, IOpCl= 0 IROHF=0.

 **********************************************************************

            Population analysis using the SCF density.

 **********************************************************************

 Orbital symmetries:
       Occupied  (A) (A) (A) (A) (A) (A) (A) (A) (A) (A) (A) (A)
                 (A) (A) (A) (A) (A) (A) (A)
       Virtual   (A) (A) (A) (A) (A) (A) (A) (A) (A) (A) (A) (A)
                 (A) (A) (A) (A) (A) (A) (A)
 The electronic state is 1-A.
 Alpha  occ. eigenvalues --   -1.06232  -0.99036  -0.88416  -0.86326  -0.75068
 Alpha  occ. eigenvalues --   -0.71008  -0.58812  -0.55724  -0.54903  -0.52251
 Alpha  occ. eigenvalues --   -0.49870  -0.48209  -0.48023  -0.46265  -0.44677
 Alpha  occ. eigenvalues --   -0.42957  -0.41162  -0.40928  -0.40472
 Alpha virt. eigenvalues --    0.15318   0.15687   0.16969   0.17544   0.18551
 Alpha virt. eigenvalues --    0.20783   0.21770   0.22077   0.22254   0.22289
 Alpha virt. eigenvalues --    0.22431   0.22511   0.23485   0.23621   0.24505
 Alpha virt. eigenvalues --    0.25028   0.25645   0.25805   0.26211
          Condensed to atoms (all electrons):
              1          2          3          4          5          6
     1  C    4.504029   0.000000   0.000000   0.000000   0.000000   0.000000
     2  H    0.000000   0.852198   0.000000   0.000000   0.000000   0.000000
     3  H    0.000000   0.000000   0.848443   0.000000   0.000000   0.000000
     4  H    0.000000   0.000000   0.000000   0.850462   0.000000   0.000000
     5  C    0.000000   0.000000   0.000000   0.000000   3.972531   0.000000
     6  H    0.000000   0.000000   0.000000   0.000000   0.000000   0.891419
     7  C    0.000000   0.000000   0.000000   0.000000   0.000000   0.000000
     8  H    0.000000   0.000000   0.000000   0.000000   0.000000   0.000000
     9  H    0.000000   0.000000   0.000000   0.000000   0.000000   0.000000
    10  C    0.000000   0.000000   0.000000   0.000000   0.000000   0.000000
    11  H    0.000000   0.000000   0.000000   0.000000   0.000000   0.000000
    12  H    0.000000   0.000000   0.000000   0.000000   0.000000   0.000000
    13  C    0.000000   0.000000   0.000000   0.000000   0.000000   0.000000
    14  H    0.000000   0.000000   0.000000   0.000000   0.000000   0.000000
    15  H    0.000000   0.000000   0.000000   0.000000   0.000000   0.000000
    16  H    0.000000   0.000000   0.000000   0.000000   0.000000   0.000000
    17  C    0.000000   0.000000   0.000000   0.000000   0.000000   0.000000
    18  H    0.000000   0.000000   0.000000   0.000000   0.000000   0.000000
    19  H    0.000000   0.000000   0.000000   0.000000   0.000000   0.000000
    20  H    0.000000   0.000000   0.000000   0.000000   0.000000   0.000000
              7          8          9         10         11         12
     1  C    0.000000   0.000000   0.000000   0.000000   0.000000   0.000000
     2  H    0.000000   0.000000   0.000000   0.000000   0.000000   0.000000
     3  H    0.000000   0.000000   0.000000   0.000000   0.000000   0.000000
     4  H    0.000000   0.000000   0.000000   0.000000   0.000000   0.000000
     5  C    0.000000   0.000000   0.000000   0.000000   0.000000   0.000000
     6  H    0.000000   0.000000   0.000000   0.000000   0.000000   0.000000
     7  C    4.308960   0.000000   0.000000   0.000000   0.000000   0.000000
     8  H    0.000000   0.862071   0.000000   0.000000   0.000000   0.000000
     9  H    0.000000   0.000000   0.864662   0.000000   0.000000   0.000000
    10  C    0.000000   0.000000   0.000000   4.213067   0.000000   0.000000
    11  H    0.000000   0.000000   0.000000   0.000000   0.876073   0.000000
    12  H    0.000000   0.000000   0.000000   0.000000   0.000000   0.874251
    13  C    0.000000   0.000000   0.000000   0.000000   0.000000   0.000000
    14  H    0.000000   0.000000   0.000000   0.000000   0.000000   0.000000
    15  H    0.000000   0.000000   0.000000   0.000000   0.000000   0.000000
    16  H    0.000000   0.000000   0.000000   0.000000   0.000000   0.000000
    17  C    0.000000   0.000000   0.000000   0.000000   0.000000   0.000000
    18  H    0.000000   0.000000   0.000000   0.000000   0.000000   0.000000
    19  H    0.000000   0.000000   0.000000   0.000000   0.000000   0.000000
    20  H    0.000000   0.000000   0.000000   0.000000   0.000000   0.000000
             13         14         15         16         17         18
     1  C    0.000000   0.000000   0.000000   0.000000   0.000000   0.000000
     2  H    0.000000   0.000000   0.000000   0.000000   0.000000   0.000000
     3  H    0.000000   0.000000   0.000000   0.000000   0.000000   0.000000
     4  H    0.000000   0.000000   0.000000   0.000000   0.000000   0.000000
     5  C    0.000000   0.000000   0.000000   0.000000   0.000000   0.000000
     6  H    0.000000   0.000000   0.000000   0.000000   0.000000   0.000000
     7  C    0.000000   0.000000   0.000000   0.000000   0.000000   0.000000
     8  H    0.000000   0.000000   0.000000   0.000000   0.000000   0.000000
     9  H    0.000000   0.000000   0.000000   0.000000   0.000000   0.000000
    10  C    0.000000   0.000000   0.000000   0.000000   0.000000   0.000000
    11  H    0.000000   0.000000   0.000000   0.000000   0.000000   0.000000
    12  H    0.000000   0.000000   0.000000   0.000000   0.000000   0.000000
    13  C    4.465823   0.000000   0.000000   0.000000   0.000000   0.000000
    14  H    0.000000   0.853520   0.000000   0.000000   0.000000   0.000000
    15  H    0.000000   0.000000   0.856569   0.000000   0.000000   0.000000
    16  H    0.000000   0.000000   0.000000   0.853892   0.000000   0.000000
    17  C    0.000000   0.000000   0.000000   0.000000   4.498728   0.000000
    18  H    0.000000   0.000000   0.000000   0.000000   0.000000   0.851353
    19  H    0.000000   0.000000   0.000000   0.000000   0.000000   0.000000
    20  H    0.000000   0.000000   0.000000   0.000000   0.000000   0.000000
             19         20
     1  C    0.000000   0.000000
     2  H    0.000000   0.000000
     3  H    0.000000   0.000000
     4  H    0.000000   0.000000
     5  C    0.000000   0.000000
     6  H    0.000000   0.000000
     7  C    0.000000   0.000000
     8  H    0.000000   0.000000
     9  H    0.000000   0.000000
    10  C    0.000000   0.000000
    11  H    0.000000   0.000000
    12  H    0.000000   0.000000
    13  C    0.000000   0.000000
    14  H    0.000000   0.000000
    15  H    0.000000   0.000000
    16  H    0.000000   0.000000
    17  C    0.000000   0.000000
    18  H    0.000000   0.000000
    19  H    0.848959   0.000000
    20  H    0.000000   0.852989
 Mulliken atomic charges:
              1
     1  C   -0.504029
     2  H    0.147802
     3  H    0.151557
     4  H    0.149538
     5  C    0.027469
     6  H    0.108581
     7  C   -0.308960
     8  H    0.137929
     9  H    0.135338
    10  C   -0.213067
    11  H    0.123927
    12  H    0.125749
    13  C   -0.465823
    14  H    0.146480
    15  H    0.143431
    16  H    0.146108
    17  C   -0.498728
    18  H    0.148647
    19  H    0.151041
    20  H    0.147011
 Sum of Mulliken atomic charges =   0.00000
 Mulliken charges with hydrogens summed into heavy atoms:
              1
     1  C   -0.055132
     5  C    0.136050
     7  C   -0.035693
    10  C    0.036609
    13  C   -0.029805
    17  C   -0.052029
 Sum of Mulliken charges with hydrogens summed into heavy atoms =   0.00000
 Charge=              0.0000 electrons
 Dipole moment (field-independent basis, Debye):
    X=              0.0158    Y=             -0.0225    Z=              0.1013  Tot=              0.1050
 N-N= 1.656351976196D+02 E-N=-2.521520364766D+02  KE=-5.622838421618D+01
 Leave Link  601 at Mon Sep 14 19:13:58 2015, MaxMem=  402653184 cpu:       0.0
 (Enter /share/apps/g09/l9999.exe)
 1\1\GINC-COMPUTE-0-4\FOpt\RPM6\ZDO\C6H14\HETANJIN\14-Sep-2015\0\\#p PM
 6 opt\\using PM6 to do opt and freq calc.\\0,1\C,2.1565365204,-0.35049
 34486,0.5124549545\H,2.1006784125,-1.4352733213,0.6488984767\H,2.17540
 1656,0.1067475375,1.507396387\H,3.1164088627,-0.1291074156,0.034112996
 1\C,0.9828004914,0.1719802563,-0.3285103374\H,1.0028936526,-0.35026404
 09,-1.3175360575\C,-0.3548642316,-0.1523044035,0.3701306462\H,-0.47227
 61923,0.4800501911,1.2698375991\H,-0.3346107733,-1.1948733148,0.741489
 3842\C,-1.5604433004,0.0335526373,-0.5609722295\H,-1.4384651879,-0.594
 9947296,-1.4646566449\H,-1.5981253503,1.0799983664,-0.923019662\C,-2.8
 733203318,-0.3167160542,0.1367301318\H,-3.0416587969,0.3126524094,1.01
 78917859\H,-3.7278793638,-0.1775872681,-0.5344694689\H,-2.8859334171,-
 1.3596206752,0.4728339522\C,1.1347220429,1.6786370015,-0.5753299075\H,
 0.3121136905,2.0676066683,-1.1849929987\H,1.1403565777,2.2425123298,0.
 3634887373\H,2.0693650387,1.9038972745,-1.0988777447\\Version=EM64L-G0
 9RevA.01\State=1-A\HF=-0.0583915\RMSD=6.506e-09\RMSF=4.973e-06\Dipole=
 0.0036071,0.0136929,0.0387977\PG=C01 [X(C6H14)]\\@


                                                                                    A
                                                                                  AA
                                                                                 AAA
                                                                                AAAA
                                                                               AAAAA
                                                                              AAAAAA   KKKKKKKK
                                                                             AAAAAAA   KKKKKKKK
                                                                            AAAAAAAA   KKKKKKKK
                                       ZZZZZZZZZZZZZZZZZZZZ                AAAA  AAA   KKKKKKKK
                                       ZZZZZZZZZZZZZZZZZZZ                AAAA   AAA   KKKKKKKK          K
                                       ZZZZZZZZZZZZZZZZZZ                AAAA    AAA   KKKKKKKK         KKK
                                       ZZZZZZZZZZZZZZZZZ                AAAA     AAA   KKKKKKKK        KKKKK
                                       ZZZZZZZZZZZZZZZZ                AAAA      AAA   KKKKKKKK       KKKKKKK
                                                ZZZZZZ                AAAA       AAA   KKKKKKKK      KKKKKKK
                                               ZZZZZZ                AAAA        AAA   KKKKKKKK     KKKKKKK
                                              ZZZZZZ                AAAA         AAA   KKKKKKKK    KKKKKKK
                                             ZZZZZZ                AAAA          AAA   KKKKKKKK   KKKKKKK
                                            ZZZZZZ                AAAAAAAAAAAAAAAAAA   KKKKKKKK  KKKKKKK
                                           ZZZZZZ                AAAAAAAAAAAAAAAAAAA   KKKKKKKK KKKKKKK
                                          ZZZZZZ                AAAAAAAAAAAAAAAAAAAA   KKKKKKKKKKKKKKK
                                         ZZZZZZ                AAAAAAAAAAAAAAAAAAAAA   KKKKKKKKKKKKKK
                                        ZZZZZZ                AAAAAA        AAAAAAAA   KKKKKKKKKKKKK
                                       ZZZZZZ                AAAAAA         AAAAAAAA   KKKKKKKKKKKK
                                      ZZZZZZ                AAAAAA          AAAAAAAA   KKKKKKKKKKK
                                     ZZZZZZ                AAAAAA           AAAAAAAA   KKKKKKKKKKKK
                                    ZZZZZZ                AAAAAA            AAAAAAAA   KKKKKKKKKKKKK
                                   ZZZZZZ                AAAAAA             AAAAAAAA   KKKKKKKKKKKKKK
                                  ZZZZZZ                AAAAAA              AAAAAAAA   KKKKKKKKKKKKKKK
                                 ZZZZZZ                AAAAAA               AAAAAAAA   KKKKK KKKKKKKKKK
                                ZZZZZZ                AAAAAA                AAAAAAAA   KKKKK  KKKKKKKKKK
                               ZZZZZZ                AAAAAA                            KKKKK   KKKKKKKKKK
                              ZZZZZZ                AAAAAA                             KKKKK    KKKKKKKKKK
                             ZZZZZZ                                                    KKKKK     KKKKKKKKKK
                            ZZZZZZ                                                     KKKKK      KKKKKKKKKK
                           ZZZZZZ                                                      KKKKK       KKKKKKKKKK
                          ZZZZZZ                                                       KKKKK        KKKKKKKKKK
                         ZZZZZZZZZZZZZZZZZZZZZZZZZZZZZZZZZZZZZZZZ                      KKKKK         KKKKKKKKKK
                        ZZZZZZZZZZZZZZZZZZZZZZZZZZZZZZZZZZZZZZZZZ                      KKKKK          KKKKKKKKKK
                       ZZZZZZZZZZZZZZZZZZZZZZZZZZZZZZZZZZZZZZZZZZ                      KKKKK           KKKKKKKKKK
                       ZZZZZZZZZZZZZZZZZZZZZZZZZZZZZZZZZZZZZZZZZZ                      KKKKK            KKKKKKKKKK
                       ZZZZZZZZZZZZZZZZZZZZZZZZZZZZZZZZZZZZZZZZZZ                      KKKKK             KKKKKKKKKK
                       ZZZZZZZZZZZZZZZZZZZZZZZZZZZZZZZZZZZZZZZZZZ                      KKKKK              KKKKKKKKKK
                       ZZZZZZZZZZZZZZZZZZZZZZZZZZZZZZZZZZZZZZZZZZ                      KKKKK               KKKKKKKKKK
                       ZZZZZZZZZZZZZZZZZZZZZZZZZZZZZZZZZZZZZZZZZZ                      KKKKK                KKKKKKKKKK
                       ZZZZZZZZZZZZZZZZZZZZZZZZZZZZZZZZZZZZZZZZZZ                      KKKKK
                                                                                       KKKKK
                                                                                          (J.P.)
 Job cpu time:  0 days  0 hours  0 minutes 23.4 seconds.
 File lengths (MBytes):  RWF=      5 Int=      0 D2E=      0 Chk=      3 Scr=      1
 Normal termination of Gaussian 09 at Mon Sep 14 19:13:59 2015.
