 Entering Gaussian System, Link 0=/share/apps/g09/g09
 Input=C6H14_2_03_1_opt_B3L.gjf
 Output=C6H14_2_03_1_opt_B3L.log
 Initial command:
 /share/apps/g09/l1.exe /state/partition1/Gau-16931.inp -scrdir=/state/partition1/
 Entering Link 1 = /share/apps/g09/l1.exe PID=     16932.
  
 Copyright (c) 1988,1990,1992,1993,1995,1998,2003,2009, Gaussian, Inc.
                  All Rights Reserved.
  
 This is part of the Gaussian(R) 09 program.  It is based on
 the Gaussian(R) 03 system (copyright 2003, Gaussian, Inc.),
 the Gaussian(R) 98 system (copyright 1998, Gaussian, Inc.),
 the Gaussian(R) 94 system (copyright 1995, Gaussian, Inc.),
 the Gaussian 92(TM) system (copyright 1992, Gaussian, Inc.),
 the Gaussian 90(TM) system (copyright 1990, Gaussian, Inc.),
 the Gaussian 88(TM) system (copyright 1988, Gaussian, Inc.),
 the Gaussian 86(TM) system (copyright 1986, Carnegie Mellon
 University), and the Gaussian 82(TM) system (copyright 1983,
 Carnegie Mellon University). Gaussian is a federally registered
 trademark of Gaussian, Inc.
  
 This software contains proprietary and confidential information,
 including trade secrets, belonging to Gaussian, Inc.
  
 This software is provided under written license and may be
 used, copied, transmitted, or stored only in accord with that
 written license.
  
 The following legend is applicable only to US Government
 contracts under FAR:
  
                    RESTRICTED RIGHTS LEGEND
  
 Use, reproduction and disclosure by the US Government is
 subject to restrictions as set forth in subparagraphs (a)
 and (c) of the Commercial Computer Software - Restricted
 Rights clause in FAR 52.227-19.
  
 Gaussian, Inc.
 340 Quinnipiac St., Bldg. 40, Wallingford CT 06492
  
  
 ---------------------------------------------------------------
 Warning -- This program may not be used in any manner that
 competes with the business of Gaussian, Inc. or will provide
 assistance to any competitor of Gaussian, Inc.  The licensee
 of this program is prohibited from giving any competitor of
 Gaussian, Inc. access to this program.  By using this program,
 the user acknowledges that Gaussian, Inc. is engaged in the
 business of creating and licensing software in the field of
 computational chemistry and represents and warrants to the
 licensee that it is not a competitor of Gaussian, Inc. and that
 it will not use this program in any manner prohibited above.
 ---------------------------------------------------------------
  

 Cite this work as:
 Gaussian 09, Revision A.01,
 M. J. Frisch, G. W. Trucks, H. B. Schlegel, G. E. Scuseria, 
 M. A. Robb, J. R. Cheeseman, G. Scalmani, V. Barone, B. Mennucci, 
 G. A. Petersson, H. Nakatsuji, M. Caricato, X. Li, H. P. Hratchian, 
 A. F. Izmaylov, J. Bloino, G. Zheng, J. L. Sonnenberg, M. Hada, 
 M. Ehara, K. Toyota, R. Fukuda, J. Hasegawa, M. Ishida, T. Nakajima, 
 Y. Honda, O. Kitao, H. Nakai, T. Vreven, J. A. Montgomery, Jr., 
 J. E. Peralta, F. Ogliaro, M. Bearpark, J. J. Heyd, E. Brothers, 
 K. N. Kudin, V. N. Staroverov, R. Kobayashi, J. Normand, 
 K. Raghavachari, A. Rendell, J. C. Burant, S. S. Iyengar, J. Tomasi, 
 M. Cossi, N. Rega, J. M. Millam, M. Klene, J. E. Knox, J. B. Cross, 
 V. Bakken, C. Adamo, J. Jaramillo, R. Gomperts, R. E. Stratmann, 
 O. Yazyev, A. J. Austin, R. Cammi, C. Pomelli, J. W. Ochterski, 
 R. L. Martin, K. Morokuma, V. G. Zakrzewski, G. A. Voth, 
 P. Salvador, J. J. Dannenberg, S. Dapprich, A. D. Daniels, 
 O. Farkas, J. B. Foresman, J. V. Ortiz, J. Cioslowski, 
 and D. J. Fox, Gaussian, Inc., Wallingford CT, 2009.
 
 ******************************************
 Gaussian 09:  EM64L-G09RevA.01  8-May-2009
                18-Sep-2015 
 ******************************************
 %mem=3GB
 %nprocshared=2
 Will use up to    2 processors via shared memory.
 -----------------------------------------
 #p B3LYP/6-31G(d) opt=tight int=ultrafine
 -----------------------------------------
 1/7=10,14=-1,18=20,19=15,26=3,38=1/1,3;
 2/9=110,12=2,17=6,18=5,40=1/2;
 3/5=1,6=6,7=1,11=2,16=1,25=1,30=1,71=1,74=-5,75=-5/1,2,3;
 4//1;
 5/5=2,38=5/2;
 6/7=2,8=2,9=2,10=2,28=1/1;
 7//1,2,3,16;
 1/7=10,14=-1,18=20,19=15/3(2);
 2/9=110/2;
 99//99;
 2/9=110/2;
 3/5=1,6=6,7=1,11=2,16=1,25=1,30=1,71=1,74=-5,75=-5/1,2,3;
 4/5=5,16=3/1;
 5/5=2,38=5/2;
 7//1,2,3,16;
 1/7=10,14=-1,18=20,19=15/3(-5);
 2/9=110/2;
 6/7=2,8=2,9=2,10=2,19=2,28=1/1;
 99/9=1/99;
 Leave Link    1 at Fri Sep 18 13:23:01 2015, MaxMem=  402653184 cpu:       0.1
 (Enter /share/apps/g09/l101.exe)
 ---------------------------------------------
 using B3LYP/6-31G(d) to do opt and freq calc.
 ---------------------------------------------
 Symbolic Z-matrix:
 Charge =  0 Multiplicity = 1
 C                     2.0028   -1.03944  -0.11507 
 H                     1.6758   -2.07704  -0.23693 
 H                     2.47149  -0.9545    0.87094 
 H                     2.78061  -0.85084  -0.86244 
 C                     0.83178  -0.05882  -0.27248 
 H                     0.37809  -0.21424  -1.28338 
 C                    -0.24712  -0.34335   0.79439 
 H                     0.12191  -0.02541   1.7878 
 H                    -0.40848  -1.4356    0.87376 
 C                    -1.58527   0.34962   0.50175 
 H                    -1.41191   1.41945   0.27 
 H                    -2.20696   0.33836   1.41887 
 C                    -2.35592  -0.30683  -0.642 
 H                    -2.59447  -1.35266  -0.4188 
 H                    -3.29997   0.21363  -0.8352 
 H                    -1.77673  -0.29685  -1.57298 
 C                     1.33386   1.38854  -0.18614 
 H                     0.509     2.10101  -0.29814 
 H                     1.81564   1.59293   0.77559 
 H                     2.06518   1.60346  -0.97173 
 
 NAtoms=     20 NQM=     20 NQMF=      0 NMic=      0 NMicF=      0 NTot=     20.
                    Isotopes and Nuclear Properties:
 (Nuclear quadrupole moments (NQMom) in fm**2, nuclear magnetic moments (NMagM)
  in nuclear magnetons)

  Atom         1           2           3           4           5           6           7           8           9          10
 IAtWgt=          12           1           1           1          12           1          12           1           1          12
 AtmWgt=  12.0000000   1.0078250   1.0078250   1.0078250  12.0000000   1.0078250  12.0000000   1.0078250   1.0078250  12.0000000
 NucSpn=           0           1           1           1           0           1           0           1           1           0
 AtZEff=   0.0000000   0.0000000   0.0000000   0.0000000   0.0000000   0.0000000   0.0000000   0.0000000   0.0000000   0.0000000
 NQMom=    0.0000000   0.0000000   0.0000000   0.0000000   0.0000000   0.0000000   0.0000000   0.0000000   0.0000000   0.0000000
 NMagM=    0.0000000   2.7928460   2.7928460   2.7928460   0.0000000   2.7928460   0.0000000   2.7928460   2.7928460   0.0000000

  Atom        11          12          13          14          15          16          17          18          19          20
 IAtWgt=           1           1          12           1           1           1          12           1           1           1
 AtmWgt=   1.0078250   1.0078250  12.0000000   1.0078250   1.0078250   1.0078250  12.0000000   1.0078250   1.0078250   1.0078250
 NucSpn=           1           1           0           1           1           1           0           1           1           1
 AtZEff=   0.0000000   0.0000000   0.0000000   0.0000000   0.0000000   0.0000000   0.0000000   0.0000000   0.0000000   0.0000000
 NQMom=    0.0000000   0.0000000   0.0000000   0.0000000   0.0000000   0.0000000   0.0000000   0.0000000   0.0000000   0.0000000
 NMagM=    2.7928460   2.7928460   0.0000000   2.7928460   2.7928460   2.7928460   0.0000000   2.7928460   2.7928460   2.7928460
 Leave Link  101 at Fri Sep 18 13:23:01 2015, MaxMem=  402653184 cpu:       0.2
 (Enter /share/apps/g09/l103.exe)

 GradGradGradGradGradGradGradGradGradGradGradGradGradGradGradGradGradGrad
 Berny optimization.
 Initialization pass.
                           ----------------------------
                           !    Initial Parameters    !
                           ! (Angstroms and Degrees)  !
 --------------------------                            --------------------------
 ! Name  Definition              Value          Derivative Info.                !
 --------------------------------------------------------------------------------
 ! R1    R(1,2)                  1.0947         estimate D2E/DX2                !
 ! R2    R(1,3)                  1.095          estimate D2E/DX2                !
 ! R3    R(1,4)                  1.095          estimate D2E/DX2                !
 ! R4    R(1,5)                  1.5355         estimate D2E/DX2                !
 ! R5    R(5,6)                  1.1189         estimate D2E/DX2                !
 ! R6    R(5,7)                  1.5438         estimate D2E/DX2                !
 ! R7    R(5,17)                 1.5344         estimate D2E/DX2                !
 ! R8    R(7,8)                  1.1064         estimate D2E/DX2                !
 ! R9    R(7,9)                  1.107          estimate D2E/DX2                !
 ! R10   R(7,10)                 1.5351         estimate D2E/DX2                !
 ! R11   R(10,11)                1.1083         estimate D2E/DX2                !
 ! R12   R(10,12)                1.108          estimate D2E/DX2                !
 ! R13   R(10,13)                1.5274         estimate D2E/DX2                !
 ! R14   R(13,14)                1.0957         estimate D2E/DX2                !
 ! R15   R(13,15)                1.0952         estimate D2E/DX2                !
 ! R16   R(13,16)                1.0965         estimate D2E/DX2                !
 ! R17   R(17,18)                1.0957         estimate D2E/DX2                !
 ! R18   R(17,19)                1.0949         estimate D2E/DX2                !
 ! R19   R(17,20)                1.0946         estimate D2E/DX2                !
 ! A1    A(2,1,3)              107.5546         estimate D2E/DX2                !
 ! A2    A(2,1,4)              107.4246         estimate D2E/DX2                !
 ! A3    A(2,1,5)              111.4753         estimate D2E/DX2                !
 ! A4    A(3,1,4)              107.2882         estimate D2E/DX2                !
 ! A5    A(3,1,5)              111.6653         estimate D2E/DX2                !
 ! A6    A(4,1,5)              111.207          estimate D2E/DX2                !
 ! A7    A(1,5,6)              108.2489         estimate D2E/DX2                !
 ! A8    A(1,5,7)              110.1473         estimate D2E/DX2                !
 ! A9    A(1,5,17)             110.3096         estimate D2E/DX2                !
 ! A10   A(6,5,7)              108.3856         estimate D2E/DX2                !
 ! A11   A(6,5,17)             108.3335         estimate D2E/DX2                !
 ! A12   A(7,5,17)             111.3247         estimate D2E/DX2                !
 ! A13   A(5,7,8)              109.5384         estimate D2E/DX2                !
 ! A14   A(5,7,9)              109.4682         estimate D2E/DX2                !
 ! A15   A(5,7,10)             113.22           estimate D2E/DX2                !
 ! A16   A(8,7,9)              105.533          estimate D2E/DX2                !
 ! A17   A(8,7,10)             109.4022         estimate D2E/DX2                !
 ! A18   A(9,7,10)             109.3921         estimate D2E/DX2                !
 ! A19   A(7,10,11)            109.8324         estimate D2E/DX2                !
 ! A20   A(7,10,12)            109.0695         estimate D2E/DX2                !
 ! A21   A(7,10,13)            112.8649         estimate D2E/DX2                !
 ! A22   A(11,10,12)           105.7027         estimate D2E/DX2                !
 ! A23   A(11,10,13)           109.7074         estimate D2E/DX2                !
 ! A24   A(12,10,13)           109.4104         estimate D2E/DX2                !
 ! A25   A(10,13,14)           111.5644         estimate D2E/DX2                !
 ! A26   A(10,13,15)           111.2707         estimate D2E/DX2                !
 ! A27   A(10,13,16)           111.4293         estimate D2E/DX2                !
 ! A28   A(14,13,15)           107.5701         estimate D2E/DX2                !
 ! A29   A(14,13,16)           107.2568         estimate D2E/DX2                !
 ! A30   A(15,13,16)           107.531          estimate D2E/DX2                !
 ! A31   A(5,17,18)            111.1781         estimate D2E/DX2                !
 ! A32   A(5,17,19)            111.6844         estimate D2E/DX2                !
 ! A33   A(5,17,20)            111.3115         estimate D2E/DX2                !
 ! A34   A(18,17,19)           107.4368         estimate D2E/DX2                !
 ! A35   A(18,17,20)           107.5738         estimate D2E/DX2                !
 ! A36   A(19,17,20)           107.4435         estimate D2E/DX2                !
 ! D1    D(2,1,5,6)            -58.0251         estimate D2E/DX2                !
 ! D2    D(2,1,5,7)             60.3169         estimate D2E/DX2                !
 ! D3    D(2,1,5,17)          -176.3972         estimate D2E/DX2                !
 ! D4    D(3,1,5,6)           -178.3589         estimate D2E/DX2                !
 ! D5    D(3,1,5,7)            -60.0169         estimate D2E/DX2                !
 ! D6    D(3,1,5,17)            63.2691         estimate D2E/DX2                !
 ! D7    D(4,1,5,6)             61.8305         estimate D2E/DX2                !
 ! D8    D(4,1,5,7)           -179.8275         estimate D2E/DX2                !
 ! D9    D(4,1,5,17)           -56.5415         estimate D2E/DX2                !
 ! D10   D(1,5,7,8)             71.6807         estimate D2E/DX2                !
 ! D11   D(1,5,7,9)            -43.586          estimate D2E/DX2                !
 ! D12   D(1,5,7,10)          -165.9204         estimate D2E/DX2                !
 ! D13   D(6,5,7,8)           -170.0613         estimate D2E/DX2                !
 ! D14   D(6,5,7,9)             74.6719         estimate D2E/DX2                !
 ! D15   D(6,5,7,10)           -47.6625         estimate D2E/DX2                !
 ! D16   D(17,5,7,8)           -51.0106         estimate D2E/DX2                !
 ! D17   D(17,5,7,9)          -166.2774         estimate D2E/DX2                !
 ! D18   D(17,5,7,10)           71.3882         estimate D2E/DX2                !
 ! D19   D(1,5,17,18)          179.9257         estimate D2E/DX2                !
 ! D20   D(1,5,17,19)          -60.0817         estimate D2E/DX2                !
 ! D21   D(1,5,17,20)           60.0107         estimate D2E/DX2                !
 ! D22   D(6,5,17,18)           61.6055         estimate D2E/DX2                !
 ! D23   D(6,5,17,19)         -178.4019         estimate D2E/DX2                !
 ! D24   D(6,5,17,20)          -58.3095         estimate D2E/DX2                !
 ! D25   D(7,5,17,18)          -57.4763         estimate D2E/DX2                !
 ! D26   D(7,5,17,19)           62.5163         estimate D2E/DX2                !
 ! D27   D(7,5,17,20)         -177.3912         estimate D2E/DX2                !
 ! D28   D(5,7,10,11)          -49.1451         estimate D2E/DX2                !
 ! D29   D(5,7,10,12)         -164.555          estimate D2E/DX2                !
 ! D30   D(5,7,10,13)           73.6159         estimate D2E/DX2                !
 ! D31   D(8,7,10,11)           73.3295         estimate D2E/DX2                !
 ! D32   D(8,7,10,12)          -42.0804         estimate D2E/DX2                !
 ! D33   D(8,7,10,13)         -163.9095         estimate D2E/DX2                !
 ! D34   D(9,7,10,11)         -171.5219         estimate D2E/DX2                !
 ! D35   D(9,7,10,12)           73.0682         estimate D2E/DX2                !
 ! D36   D(9,7,10,13)          -48.7609         estimate D2E/DX2                !
 ! D37   D(7,10,13,14)          60.4404         estimate D2E/DX2                !
 ! D38   D(7,10,13,15)        -179.4158         estimate D2E/DX2                !
 ! D39   D(7,10,13,16)         -59.4132         estimate D2E/DX2                !
 ! D40   D(11,10,13,14)       -176.7289         estimate D2E/DX2                !
 ! D41   D(11,10,13,15)        -56.585          estimate D2E/DX2                !
 ! D42   D(11,10,13,16)         63.4176         estimate D2E/DX2                !
 ! D43   D(12,10,13,14)        -61.1964         estimate D2E/DX2                !
 ! D44   D(12,10,13,15)         58.9475         estimate D2E/DX2                !
 ! D45   D(12,10,13,16)        178.9501         estimate D2E/DX2                !
 --------------------------------------------------------------------------------
 Trust Radius=3.00D-01 FncErr=1.00D-07 GrdErr=1.00D-06
 Number of steps in this run= 110 maximum allowed number of steps= 120.
 GradGradGradGradGradGradGradGradGradGradGradGradGradGradGradGradGradGrad

 Leave Link  103 at Fri Sep 18 13:23:01 2015, MaxMem=  402653184 cpu:       0.0
 (Enter /share/apps/g09/l202.exe)
                          Input orientation:                          
 ---------------------------------------------------------------------
 Center     Atomic      Atomic             Coordinates (Angstroms)
 Number     Number       Type             X           Y           Z
 ---------------------------------------------------------------------
      1          6           0        2.002804   -1.039445   -0.115071
      2          1           0        1.675799   -2.077043   -0.236932
      3          1           0        2.471487   -0.954497    0.870941
      4          1           0        2.780608   -0.850840   -0.862438
      5          6           0        0.831775   -0.058816   -0.272484
      6          1           0        0.378093   -0.214236   -1.283381
      7          6           0       -0.247122   -0.343349    0.794393
      8          1           0        0.121908   -0.025407    1.787795
      9          1           0       -0.408477   -1.435597    0.873758
     10          6           0       -1.585265    0.349622    0.501745
     11          1           0       -1.411907    1.419451    0.270003
     12          1           0       -2.206957    0.338362    1.418866
     13          6           0       -2.355921   -0.306834   -0.641998
     14          1           0       -2.594472   -1.352662   -0.418802
     15          1           0       -3.299973    0.213631   -0.835202
     16          1           0       -1.776725   -0.296854   -1.572979
     17          6           0        1.333862    1.388538   -0.186142
     18          1           0        0.509000    2.101013   -0.298141
     19          1           0        1.815639    1.592928    0.775588
     20          1           0        2.065181    1.603456   -0.971732
 ---------------------------------------------------------------------
                    Distance matrix (angstroms):
                    1          2          3          4          5
     1  C    0.000000
     2  H    1.094711   0.000000
     3  H    1.095034   1.766525   0.000000
     4  H    1.095038   1.765059   1.763775   0.000000
     5  C    1.535487   2.187894   2.190507   2.184788   0.000000
     6  H    2.164626   2.499829   3.093766   2.520820   1.118881
     7  C    2.524647   2.786925   2.787507   3.488522   1.543763
     8  H    2.861283   3.274646   2.687815   3.843665   2.179398
     9  H    2.636095   2.447303   2.919873   3.677850   2.178904
    10  C    3.896692   4.131451   4.277180   4.728948   2.570668
    11  H    4.225483   4.692162   4.591024   4.900390   2.741108
    12  H    4.687580   4.863295   4.884623   5.611983   3.500330
    13  C    4.451163   4.421819   5.100227   5.169958   3.218611
    14  H    4.617933   4.335092   5.242701   5.416652   3.665326
    15  H    5.496202   5.510301   6.130677   6.173112   4.178782
    16  H    4.118468   4.107799   4.944951   4.645541   2.924418
    17  C    2.519452   3.482779   2.810948   2.750503   1.534399
    18  H    3.482448   4.338354   3.815003   3.767236   2.183965
    19  H    2.785263   3.809651   2.632224   3.096174   2.189681
    20  H    2.778972   3.773277   3.178624   2.558779   2.184808
                    6          7          8          9         10
     6  H    0.000000
     7  C    2.173640   0.000000
     8  H    3.087622   1.106399   0.000000
     9  H    2.600704   1.106951   1.762217   0.000000
    10  C    2.712819   1.535083   2.170026   2.170307   0.000000
    11  H    2.878547   2.176964   2.596901   3.085886   1.108283
    12  H    3.780210   2.166945   2.385801   2.584299   1.108034
    13  C    2.809765   2.551781   3.481771   2.713699   1.527414
    14  H    3.298432   2.828534   3.742913   2.540898   2.182585
    15  H    3.729893   3.505097   4.318162   3.741824   2.178565
    16  H    2.175760   2.818918   3.869534   3.025783   2.181529
    17  C    2.164789   2.541730   2.713761   3.483514   3.173931
    18  H    2.519566   2.782132   3.003770   3.837020   2.844843
    19  H    3.093822   2.829223   2.551920   3.758762   3.631384
    20  H    2.499479   3.500856   3.747598   4.331358   4.131463
                   11         12         13         14         15
    11  H    0.000000
    12  H    1.766563   0.000000
    13  C    2.168633   2.164631   0.000000
    14  H    3.091524   2.527203   1.095664   0.000000
    15  H    2.498054   2.508199   1.095192   1.767596   0.000000
    16  H    2.544676   3.088646   1.096491   1.765096   1.767822
    17  C    2.783572   4.026949   4.086146   4.795844   4.824325
    18  H    2.115939   3.664898   3.758156   4.644779   4.284731
    19  H    3.271508   4.262513   4.797974   5.436189   5.537742
    20  H    3.696742   5.056341   4.827429   5.545875   5.543927
                   16         17         18         19         20
    16  H    0.000000
    17  C    3.799949   0.000000
    18  H    3.549580   1.095701   0.000000
    19  H    4.689576   1.094901   1.765885   0.000000
    20  H    4.328154   1.094609   1.767198   1.765081   0.000000
 Stoichiometry    C6H14
 Framework group  C1[X(C6H14)]
 Deg. of freedom    54
 Full point group                 C1      NOp   1
 Largest Abelian subgroup         C1      NOp   1
 Largest concise Abelian subgroup C1      NOp   1
                         Standard orientation:                         
 ---------------------------------------------------------------------
 Center     Atomic      Atomic             Coordinates (Angstroms)
 Number     Number       Type             X           Y           Z
 ---------------------------------------------------------------------
      1          6           0        2.002804   -1.039445   -0.115071
      2          1           0        1.675799   -2.077043   -0.236932
      3          1           0        2.471487   -0.954497    0.870941
      4          1           0        2.780608   -0.850840   -0.862438
      5          6           0        0.831775   -0.058816   -0.272484
      6          1           0        0.378093   -0.214236   -1.283381
      7          6           0       -0.247122   -0.343349    0.794393
      8          1           0        0.121908   -0.025407    1.787795
      9          1           0       -0.408477   -1.435597    0.873758
     10          6           0       -1.585265    0.349622    0.501745
     11          1           0       -1.411907    1.419451    0.270003
     12          1           0       -2.206957    0.338362    1.418866
     13          6           0       -2.355921   -0.306834   -0.641998
     14          1           0       -2.594472   -1.352662   -0.418802
     15          1           0       -3.299973    0.213631   -0.835202
     16          1           0       -1.776725   -0.296854   -1.572979
     17          6           0        1.333862    1.388538   -0.186142
     18          1           0        0.509000    2.101013   -0.298141
     19          1           0        1.815639    1.592928    0.775588
     20          1           0        2.065181    1.603456   -0.971732
 ---------------------------------------------------------------------
 Rotational constants (GHZ):      5.4145531      1.9477090      1.7419063
 Leave Link  202 at Fri Sep 18 13:23:01 2015, MaxMem=  402653184 cpu:       0.0
 (Enter /share/apps/g09/l301.exe)
 Standard basis: 6-31G(d) (6D, 7F)
 Ernie: Thresh=  0.10000D-02 Tol=  0.10000D-05 Strict=F.
 There are   118 symmetry adapted basis functions of A   symmetry.
 Integral buffers will be    131072 words long.
 Raffenetti 2 integral format.
 Two-electron integral symmetry is turned on.
   118 basis functions,   224 primitive gaussians,   118 cartesian basis functions
    25 alpha electrons       25 beta electrons
       nuclear repulsion energy       256.4513112000 Hartrees.
 IExCor=  402 DFT=T Ex+Corr=B3LYP ExCW=0 ScaHFX=  0.200000
 ScaDFX=  0.800000  0.720000  1.000000  0.810000 ScalE2=  1.000000  1.000000
 IRadAn=      5 IRanWt=     -1 IRanGd=            0 ICorTp=0
 NAtoms=   20 NActive=   20 NUniq=   20 SFac= 7.50D-01 NAtFMM=   80 NAOKFM=F Big=F
 Leave Link  301 at Fri Sep 18 13:23:01 2015, MaxMem=  402653184 cpu:       0.1
 (Enter /share/apps/g09/l302.exe)
 NPDir=0 NMtPBC=     1 NCelOv=     1 NCel=       1 NClECP=     1 NCelD=      1
         NCelK=      1 NCelE2=     1 NClLst=     1 CellRange=     0.0.
 One-electron integrals computed using PRISM.
 NBasis=   118 RedAO= T  NBF=   118
 NBsUse=   118 1.00D-06 NBFU=   118
 Precomputing XC quadrature grid using
 IXCGrd= 2 IRadAn=           5 IRanWt=          -1 IRanGd=           0 AccXCQ= 1.00D-10.
 NRdTot=    1644 NPtTot=      440632 NUsed=      452413 NTot=      452445
 NSgBfM=   118   118   118   118   118 NAtAll=    20    20.
 Leave Link  302 at Fri Sep 18 13:23:02 2015, MaxMem=  402653184 cpu:       1.2
 (Enter /share/apps/g09/l303.exe)
 DipDrv:  MaxL=1.
 Leave Link  303 at Fri Sep 18 13:23:02 2015, MaxMem=  402653184 cpu:       0.0
 (Enter /share/apps/g09/l401.exe)
 Harris functional with IExCor=  402 diagonalized for initial guess.
 ExpMin= 1.61D-01 ExpMax= 3.05D+03 ExpMxC= 4.57D+02 IAcc=3 IRadAn=         5 AccDes= 0.00D+00
 HarFok:  IExCor=  402 AccDes= 0.00D+00 IRadAn=         5 IDoV= 1
 ScaDFX=  1.000000  1.000000  1.000000  1.000000
 FoFCou: FMM=F IPFlag=           0 FMFlag=      100000 FMFlg1=           0
         NFxFlg=           0 DoJE=T BraDBF=F KetDBF=T FulRan=T
         Omega=  0.000000  0.000000  1.000000  0.000000  0.000000 ICntrl=     500 IOpCl=  0
         NMat0=    1 NMatS0=    1 NMatT0=    0 NMatD0=    1 NMtDS0=    0 NMtDT0=    0
         I1Cent=           4 NGrid=           0.
 Petite list used in FoFCou.
 Harris En= -237.178055479137    
 Initial guess orbital symmetries:
       Occupied  (A) (A) (A) (A) (A) (A) (A) (A) (A) (A) (A) (A)
                 (A) (A) (A) (A) (A) (A) (A) (A) (A) (A) (A) (A)
                 (A)
       Virtual   (A) (A) (A) (A) (A) (A) (A) (A) (A) (A) (A) (A)
                 (A) (A) (A) (A) (A) (A) (A) (A) (A) (A) (A) (A)
                 (A) (A) (A) (A) (A) (A) (A) (A) (A) (A) (A) (A)
                 (A) (A) (A) (A) (A) (A) (A) (A) (A) (A) (A) (A)
                 (A) (A) (A) (A) (A) (A) (A) (A) (A) (A) (A) (A)
                 (A) (A) (A) (A) (A) (A) (A) (A) (A) (A) (A) (A)
                 (A) (A) (A) (A) (A) (A) (A) (A) (A) (A) (A) (A)
                 (A) (A) (A) (A) (A) (A) (A) (A) (A)
 The electronic state of the initial guess is 1-A.
 Leave Link  401 at Fri Sep 18 13:23:07 2015, MaxMem=  402653184 cpu:      10.3
 (Enter /share/apps/g09/l502.exe)
 Closed shell SCF:
 Requested convergence on RMS density matrix=1.00D-08 within 128 cycles.
 Requested convergence on MAX density matrix=1.00D-06.
 Requested convergence on             energy=1.00D-06.
 No special actions if energy rises.
 Using DIIS extrapolation, IDIIS=  1040.
 Integral symmetry usage will be decided dynamically.
       452220 words used for storage of precomputed grid.
 Keep R1 ints in memory in canonical form, NReq=26106275.
 IEnd=      513764 IEndB=      513764 NGot=   402653184 MDV=   377519344
 LenX=   377519344 LenY=   377504979
 Symmetry not used in FoFDir.
 MinBra= 0 MaxBra= 2 Meth= 1.
 IRaf=       0 NMat=   1 IRICut=       1 DoRegI=T DoRafI=F ISym2E= 0 JSym2E=0.
 Integral accuracy reduced to 1.0D-05 until final iterations.

 Cycle   1  Pass 0  IDiag  1:
 E= -236.789655194045    
 DIIS: error= 4.67D-02 at cycle   1 NSaved=   1.
 NSaved= 1 IEnMin= 1 EnMin= -236.789655194045     IErMin= 1 ErrMin= 4.67D-02
 ErrMax= 4.67D-02 EMaxC= 1.00D-01 BMatC= 2.59D-01 BMatP= 2.59D-01
 IDIUse=3 WtCom= 5.33D-01 WtEn= 4.67D-01
 Coeff-Com:  0.100D+01
 Coeff-En:   0.100D+01
 Coeff:      0.100D+01
 Gap=     0.332 Goal=   None    Shift=    0.000
 GapD=    0.332 DampG=1.000 DampE=0.500 DampFc=0.5000 IDamp=-1.
 Damping current iteration by 5.00D-01
 RMSDP=1.03D-02 MaxDP=1.46D-01              OVMax= 1.83D-01

 Cycle   2  Pass 0  IDiag  1:
 E= -236.917193363089     Delta-E=       -0.127538169044 Rises=F Damp=T
 DIIS: error= 8.50D-03 at cycle   2 NSaved=   2.
 NSaved= 2 IEnMin= 2 EnMin= -236.917193363089     IErMin= 2 ErrMin= 8.50D-03
 ErrMax= 8.50D-03 EMaxC= 1.00D-01 BMatC= 1.03D-02 BMatP= 2.59D-01
 IDIUse=3 WtCom= 9.15D-01 WtEn= 8.50D-02
 Coeff-Com:  0.895D-01 0.910D+00
 Coeff-En:   0.148D+00 0.852D+00
 Coeff:      0.945D-01 0.905D+00
 Gap=     0.397 Goal=   None    Shift=    0.000
 RMSDP=1.65D-03 MaxDP=2.52D-02 DE=-1.28D-01 OVMax= 1.05D-01

 Cycle   3  Pass 0  IDiag  1:
 E= -237.080769492328     Delta-E=       -0.163576129239 Rises=F Damp=F
 DIIS: error= 2.40D-03 at cycle   3 NSaved=   3.
 NSaved= 3 IEnMin= 3 EnMin= -237.080769492328     IErMin= 3 ErrMin= 2.40D-03
 ErrMax= 2.40D-03 EMaxC= 1.00D-01 BMatC= 1.15D-03 BMatP= 1.03D-02
 IDIUse=3 WtCom= 9.76D-01 WtEn= 2.40D-02
 Coeff-Com:  0.101D-01 0.196D+00 0.794D+00
 Coeff-En:   0.000D+00 0.000D+00 0.100D+01
 Coeff:      0.984D-02 0.191D+00 0.799D+00
 Gap=     0.384 Goal=   None    Shift=    0.000
 RMSDP=5.07D-04 MaxDP=1.00D-02 DE=-1.64D-01 OVMax= 9.15D-03

 Cycle   4  Pass 0  IDiag  1:
 E= -237.081410567216     Delta-E=       -0.000641074889 Rises=F Damp=F
 DIIS: error= 1.35D-03 at cycle   4 NSaved=   4.
 NSaved= 4 IEnMin= 4 EnMin= -237.081410567216     IErMin= 4 ErrMin= 1.35D-03
 ErrMax= 1.35D-03 EMaxC= 1.00D-01 BMatC= 5.12D-04 BMatP= 1.15D-03
 IDIUse=3 WtCom= 9.86D-01 WtEn= 1.35D-02
 Coeff-Com:  0.244D-03 0.316D-01 0.404D+00 0.564D+00
 Coeff-En:   0.000D+00 0.000D+00 0.292D+00 0.708D+00
 Coeff:      0.241D-03 0.312D-01 0.402D+00 0.566D+00
 Gap=     0.386 Goal=   None    Shift=    0.000
 RMSDP=2.01D-04 MaxDP=4.96D-03 DE=-6.41D-04 OVMax= 4.47D-03

 Cycle   5  Pass 0  IDiag  1:
 E= -237.081892375535     Delta-E=       -0.000481808319 Rises=F Damp=F
 DIIS: error= 1.77D-04 at cycle   5 NSaved=   5.
 NSaved= 5 IEnMin= 5 EnMin= -237.081892375535     IErMin= 5 ErrMin= 1.77D-04
 ErrMax= 1.77D-04 EMaxC= 1.00D-01 BMatC= 1.43D-05 BMatP= 5.12D-04
 IDIUse=3 WtCom= 9.98D-01 WtEn= 1.77D-03
 Coeff-Com:  0.106D-03-0.168D-02 0.966D-01 0.212D+00 0.693D+00
 Coeff-En:   0.000D+00 0.000D+00 0.000D+00 0.000D+00 0.100D+01
 Coeff:      0.106D-03-0.168D-02 0.964D-01 0.212D+00 0.693D+00
 Gap=     0.386 Goal=   None    Shift=    0.000
 RMSDP=3.03D-05 MaxDP=7.01D-04 DE=-4.82D-04 OVMax= 6.81D-04

 Cycle   6  Pass 0  IDiag  1:
 E= -237.081905786869     Delta-E=       -0.000013411334 Rises=F Damp=F
 DIIS: error= 2.27D-05 at cycle   6 NSaved=   6.
 NSaved= 6 IEnMin= 6 EnMin= -237.081905786869     IErMin= 6 ErrMin= 2.27D-05
 ErrMax= 2.27D-05 EMaxC= 1.00D-01 BMatC= 1.59D-07 BMatP= 1.43D-05
 IDIUse=1 WtCom= 1.00D+00 WtEn= 0.00D+00
 Coeff-Com:  0.130D-03-0.103D-02 0.267D-01 0.620D-01 0.228D+00 0.684D+00
 Coeff:      0.130D-03-0.103D-02 0.267D-01 0.620D-01 0.228D+00 0.684D+00
 Gap=     0.386 Goal=   None    Shift=    0.000
 RMSDP=4.50D-06 MaxDP=1.05D-04 DE=-1.34D-05 OVMax= 1.17D-04

 Initial convergence to 1.0D-05 achieved.  Increase integral accuracy.
 Cycle   7  Pass 1  IDiag  1:
 E= -237.081903052011     Delta-E=        0.000002734858 Rises=F Damp=F
 DIIS: error= 9.64D-06 at cycle   1 NSaved=   1.
 NSaved= 1 IEnMin= 1 EnMin= -237.081903052011     IErMin= 1 ErrMin= 9.64D-06
 ErrMax= 9.64D-06 EMaxC= 1.00D-01 BMatC= 3.04D-08 BMatP= 3.04D-08
 IDIUse=1 WtCom= 1.00D+00 WtEn= 0.00D+00
 Coeff-Com:  0.100D+01
 Coeff:      0.100D+01
 Gap=     0.386 Goal=   None    Shift=    0.000
 RMSDP=4.50D-06 MaxDP=1.05D-04 DE= 2.73D-06 OVMax= 6.76D-05

 Cycle   8  Pass 1  IDiag  1:
 E= -237.081903043524     Delta-E=        0.000000008487 Rises=F Damp=F
 DIIS: error= 1.15D-05 at cycle   2 NSaved=   2.
 NSaved= 2 IEnMin= 1 EnMin= -237.081903052011     IErMin= 1 ErrMin= 9.64D-06
 ErrMax= 1.15D-05 EMaxC= 1.00D-01 BMatC= 4.07D-08 BMatP= 3.04D-08
 IDIUse=1 WtCom= 1.00D+00 WtEn= 0.00D+00
 Coeff-Com:  0.537D+00 0.463D+00
 Coeff:      0.537D+00 0.463D+00
 Gap=     0.386 Goal=   None    Shift=    0.000
 RMSDP=1.55D-06 MaxDP=3.84D-05 DE= 8.49D-09 OVMax= 3.95D-05

 Cycle   9  Pass 1  IDiag  1:
 E= -237.081903082787     Delta-E=       -0.000000039263 Rises=F Damp=F
 DIIS: error= 6.20D-07 at cycle   3 NSaved=   3.
 NSaved= 3 IEnMin= 3 EnMin= -237.081903082787     IErMin= 3 ErrMin= 6.20D-07
 ErrMax= 6.20D-07 EMaxC= 1.00D-01 BMatC= 9.44D-11 BMatP= 3.04D-08
 IDIUse=1 WtCom= 1.00D+00 WtEn= 0.00D+00
 Coeff-Com:  0.892D-02 0.443D-01 0.947D+00
 Coeff:      0.892D-02 0.443D-01 0.947D+00
 Gap=     0.386 Goal=   None    Shift=    0.000
 RMSDP=1.13D-07 MaxDP=1.67D-06 DE=-3.93D-08 OVMax= 2.18D-06

 Cycle  10  Pass 1  IDiag  1:
 E= -237.081903082864     Delta-E=       -0.000000000076 Rises=F Damp=F
 DIIS: error= 2.45D-07 at cycle   4 NSaved=   4.
 NSaved= 4 IEnMin= 4 EnMin= -237.081903082864     IErMin= 4 ErrMin= 2.45D-07
 ErrMax= 2.45D-07 EMaxC= 1.00D-01 BMatC= 1.77D-11 BMatP= 9.44D-11
 IDIUse=1 WtCom= 1.00D+00 WtEn= 0.00D+00
 Coeff-Com: -0.103D-01 0.742D-02 0.407D+00 0.596D+00
 Coeff:     -0.103D-01 0.742D-02 0.407D+00 0.596D+00
 Gap=     0.386 Goal=   None    Shift=    0.000
 RMSDP=4.53D-08 MaxDP=9.55D-07 DE=-7.63D-11 OVMax= 9.45D-07

 Cycle  11  Pass 1  IDiag  1:
 E= -237.081903082882     Delta-E=       -0.000000000018 Rises=F Damp=F
 DIIS: error= 6.87D-08 at cycle   5 NSaved=   5.
 NSaved= 5 IEnMin= 5 EnMin= -237.081903082882     IErMin= 5 ErrMin= 6.87D-08
 ErrMax= 6.87D-08 EMaxC= 1.00D-01 BMatC= 1.29D-12 BMatP= 1.77D-11
 IDIUse=1 WtCom= 1.00D+00 WtEn= 0.00D+00
 Coeff-Com: -0.540D-02 0.997D-03 0.136D+00 0.282D+00 0.587D+00
 Coeff:     -0.540D-02 0.997D-03 0.136D+00 0.282D+00 0.587D+00
 Gap=     0.386 Goal=   None    Shift=    0.000
 RMSDP=1.08D-08 MaxDP=2.29D-07 DE=-1.84D-11 OVMax= 2.32D-07

 Cycle  12  Pass 1  IDiag  1:
 E= -237.081903082882     Delta-E=        0.000000000000 Rises=F Damp=F
 DIIS: error= 1.04D-08 at cycle   6 NSaved=   6.
 NSaved= 6 IEnMin= 6 EnMin= -237.081903082882     IErMin= 6 ErrMin= 1.04D-08
 ErrMax= 1.04D-08 EMaxC= 1.00D-01 BMatC= 2.81D-14 BMatP= 1.29D-12
 IDIUse=1 WtCom= 1.00D+00 WtEn= 0.00D+00
 Coeff-Com: -0.112D-02-0.178D-04 0.209D-01 0.566D-01 0.187D+00 0.737D+00
 Coeff:     -0.112D-02-0.178D-04 0.209D-01 0.566D-01 0.187D+00 0.737D+00
 Gap=     0.386 Goal=   None    Shift=    0.000
 RMSDP=2.16D-09 MaxDP=4.24D-08 DE=-2.27D-13 OVMax= 4.21D-08

 SCF Done:  E(RB3LYP) =  -237.081903083     A.U. after   12 cycles
             Convg  =    0.2157D-08             -V/T =  2.0105
 KE= 2.346128917794D+02 PE=-1.059809709678D+03 EE= 3.316636036160D+02
 Leave Link  502 at Fri Sep 18 13:24:00 2015, MaxMem=  402653184 cpu:     105.8
 (Enter /share/apps/g09/l601.exe)
 Copying SCF densities to generalized density rwf, IOpCl= 0 IROHF=0.

 **********************************************************************

            Population analysis using the SCF density.

 **********************************************************************

 Orbital symmetries:
       Occupied  (A) (A) (A) (A) (A) (A) (A) (A) (A) (A) (A) (A)
                 (A) (A) (A) (A) (A) (A) (A) (A) (A) (A) (A) (A)
                 (A)
       Virtual   (A) (A) (A) (A) (A) (A) (A) (A) (A) (A) (A) (A)
                 (A) (A) (A) (A) (A) (A) (A) (A) (A) (A) (A) (A)
                 (A) (A) (A) (A) (A) (A) (A) (A) (A) (A) (A) (A)
                 (A) (A) (A) (A) (A) (A) (A) (A) (A) (A) (A) (A)
                 (A) (A) (A) (A) (A) (A) (A) (A) (A) (A) (A) (A)
                 (A) (A) (A) (A) (A) (A) (A) (A) (A) (A) (A) (A)
                 (A) (A) (A) (A) (A) (A) (A) (A) (A) (A) (A) (A)
                 (A) (A) (A) (A) (A) (A) (A) (A) (A)
 The electronic state is 1-A.
 Alpha  occ. eigenvalues --  -10.18446 -10.17702 -10.17357 -10.16910 -10.16757
 Alpha  occ. eigenvalues --  -10.16703  -0.80674  -0.75317  -0.67686  -0.66958
 Alpha  occ. eigenvalues --   -0.59157  -0.54489  -0.46066  -0.45099  -0.42032
 Alpha  occ. eigenvalues --   -0.41477  -0.40440  -0.38025  -0.37030  -0.35010
 Alpha  occ. eigenvalues --   -0.34228  -0.33862  -0.31358  -0.30926  -0.30058
 Alpha virt. eigenvalues --    0.08514   0.11434   0.11824   0.12646   0.15020
 Alpha virt. eigenvalues --    0.15581   0.16246   0.17146   0.18011   0.18684
 Alpha virt. eigenvalues --    0.19529   0.20898   0.22492   0.23053   0.24148
 Alpha virt. eigenvalues --    0.24972   0.27180   0.27744   0.29444   0.50248
 Alpha virt. eigenvalues --    0.51035   0.51934   0.52046   0.53771   0.56653
 Alpha virt. eigenvalues --    0.58844   0.63779   0.66270   0.67633   0.69158
 Alpha virt. eigenvalues --    0.73097   0.73391   0.74196   0.76775   0.83071
 Alpha virt. eigenvalues --    0.84381   0.87210   0.88156   0.89305   0.90755
 Alpha virt. eigenvalues --    0.91271   0.91994   0.92156   0.93706   0.96192
 Alpha virt. eigenvalues --    0.97255   0.98540   0.99167   0.99847   1.02690
 Alpha virt. eigenvalues --    1.05541   1.08104   1.22726   1.39223   1.42503
 Alpha virt. eigenvalues --    1.45038   1.51200   1.57451   1.62212   1.68950
 Alpha virt. eigenvalues --    1.76578   1.77100   1.82152   1.84871   1.87776
 Alpha virt. eigenvalues --    1.93627   1.94836   1.97761   2.00322   2.03936
 Alpha virt. eigenvalues --    2.07552   2.11630   2.15558   2.17236   2.24710
 Alpha virt. eigenvalues --    2.25971   2.26823   2.34210   2.36350   2.38356
 Alpha virt. eigenvalues --    2.45859   2.50479   2.53302   2.61170   2.68009
 Alpha virt. eigenvalues --    2.73577   2.78637   4.12863   4.20831   4.29383
 Alpha virt. eigenvalues --    4.36066   4.49218   4.59909
          Condensed to atoms (all electrons):
              1          2          3          4          5          6
     1  C    5.108816   0.369473   0.372622   0.367914   0.378993  -0.044246
     2  H    0.369473   0.581544  -0.031949  -0.030742  -0.029238  -0.003340
     3  H    0.372622  -0.031949   0.583421  -0.032768  -0.032921   0.005480
     4  H    0.367914  -0.030742  -0.032768   0.586436  -0.029905  -0.003009
     5  C    0.378993  -0.029238  -0.032921  -0.029905   4.842433   0.380039
     6  H   -0.044246  -0.003340   0.005480  -0.003009   0.380039   0.637257
     7  C   -0.047643  -0.004603  -0.005704   0.004988   0.389575  -0.051339
     8  H   -0.003128  -0.000221   0.004045  -0.000136  -0.036506   0.006016
     9  H   -0.005318   0.005367  -0.000204   0.000082  -0.039754  -0.001789
    10  C    0.004384   0.000009   0.000042  -0.000170  -0.036203  -0.005621
    11  H    0.000151   0.000004   0.000001   0.000001  -0.008636  -0.000060
    12  H   -0.000165  -0.000002  -0.000001   0.000003   0.004581   0.000073
    13  C    0.000173   0.000003  -0.000002   0.000001  -0.006615   0.002086
    14  H   -0.000037   0.000005   0.000001   0.000000  -0.000243   0.000146
    15  H    0.000000   0.000000   0.000000   0.000000   0.000160  -0.000186
    16  H   -0.000231   0.000010   0.000001   0.000013   0.001805   0.005613
    17  C   -0.055253   0.005345  -0.005460  -0.003639   0.381915  -0.047041
    18  H    0.005369  -0.000196  -0.000034  -0.000048  -0.031689  -0.002821
    19  H   -0.005520  -0.000014   0.004916  -0.000232  -0.033401   0.005570
    20  H   -0.004051  -0.000046  -0.000215   0.004126  -0.029575  -0.003361
              7          8          9         10         11         12
     1  C   -0.047643  -0.003128  -0.005318   0.004384   0.000151  -0.000165
     2  H   -0.004603  -0.000221   0.005367   0.000009   0.000004  -0.000002
     3  H   -0.005704   0.004045  -0.000204   0.000042   0.000001  -0.000001
     4  H    0.004988  -0.000136   0.000082  -0.000170   0.000001   0.000003
     5  C    0.389575  -0.036506  -0.039754  -0.036203  -0.008636   0.004581
     6  H   -0.051339   0.006016  -0.001789  -0.005621  -0.000060   0.000073
     7  C    5.030586   0.362664   0.368410   0.375883  -0.041041  -0.033199
     8  H    0.362664   0.621298  -0.038475  -0.033971  -0.001118  -0.005257
     9  H    0.368410  -0.038475   0.621104  -0.040448   0.005639  -0.001393
    10  C    0.375883  -0.033971  -0.040448   4.971743   0.375169   0.370972
    11  H   -0.041041  -0.001118   0.005639   0.375169   0.608888  -0.037941
    12  H   -0.033199  -0.005257  -0.001393   0.370972  -0.037941   0.616130
    13  C   -0.047232   0.005089  -0.007465   0.379572  -0.040057  -0.039117
    14  H   -0.004655   0.000043   0.005659  -0.034799   0.005202  -0.004616
    15  H    0.004516  -0.000175   0.000076  -0.029442  -0.002733  -0.002877
    16  H   -0.004644  -0.000018  -0.000025  -0.037304  -0.004111   0.005298
    17  C   -0.048954  -0.008831   0.005576  -0.006462   0.001883   0.000156
    18  H   -0.004805   0.000013  -0.000040   0.000708   0.006579  -0.000176
    19  H   -0.005984   0.005703   0.000020  -0.000033   0.000154  -0.000038
    20  H    0.004996   0.000049  -0.000178   0.000127  -0.000224   0.000003
             13         14         15         16         17         18
     1  C    0.000173  -0.000037   0.000000  -0.000231  -0.055253   0.005369
     2  H    0.000003   0.000005   0.000000   0.000010   0.005345  -0.000196
     3  H   -0.000002   0.000001   0.000000   0.000001  -0.005460  -0.000034
     4  H    0.000001   0.000000   0.000000   0.000013  -0.003639  -0.000048
     5  C   -0.006615  -0.000243   0.000160   0.001805   0.381915  -0.031689
     6  H    0.002086   0.000146  -0.000186   0.005613  -0.047041  -0.002821
     7  C   -0.047232  -0.004655   0.004516  -0.004644  -0.048954  -0.004805
     8  H    0.005089   0.000043  -0.000175  -0.000018  -0.008831   0.000013
     9  H   -0.007465   0.005659   0.000076  -0.000025   0.005576  -0.000040
    10  C    0.379572  -0.034799  -0.029442  -0.037304  -0.006462   0.000708
    11  H   -0.040057   0.005202  -0.002733  -0.004111   0.001883   0.006579
    12  H   -0.039117  -0.004616  -0.002877   0.005298   0.000156  -0.000176
    13  C    5.069273   0.377121   0.372341   0.377335  -0.000051   0.000193
    14  H    0.377121   0.578820  -0.031151  -0.033163   0.000012  -0.000001
    15  H    0.372341  -0.031151   0.578839  -0.030439  -0.000014  -0.000012
    16  H    0.377335  -0.033163  -0.030439   0.574338   0.000192   0.000016
    17  C   -0.000051   0.000012  -0.000014   0.000192   5.114629   0.369070
    18  H    0.000193  -0.000001  -0.000012   0.000016   0.369070   0.576460
    19  H    0.000013   0.000001   0.000001  -0.000003   0.372003  -0.031807
    20  H   -0.000014   0.000000   0.000000  -0.000008   0.369633  -0.029660
             19         20
     1  C   -0.005520  -0.004051
     2  H   -0.000014  -0.000046
     3  H    0.004916  -0.000215
     4  H   -0.000232   0.004126
     5  C   -0.033401  -0.029575
     6  H    0.005570  -0.003361
     7  C   -0.005984   0.004996
     8  H    0.005703   0.000049
     9  H    0.000020  -0.000178
    10  C   -0.000033   0.000127
    11  H    0.000154  -0.000224
    12  H   -0.000038   0.000003
    13  C    0.000013  -0.000014
    14  H    0.000001   0.000000
    15  H    0.000001   0.000000
    16  H   -0.000003  -0.000008
    17  C    0.372003   0.369633
    18  H   -0.031807  -0.029660
    19  H    0.581611  -0.032120
    20  H   -0.032120   0.581018
 Mulliken atomic charges:
              1
     1  C   -0.442303
     2  H    0.138592
     3  H    0.138729
     4  H    0.137085
     5  C   -0.064814
     6  H    0.120532
     7  C   -0.241816
     8  H    0.122917
     9  H    0.123156
    10  C   -0.254156
    11  H    0.132250
    12  H    0.127565
    13  C   -0.442647
    14  H    0.141653
    15  H    0.141098
    16  H    0.145326
    17  C   -0.444708
    18  H    0.142880
    19  H    0.139160
    20  H    0.139501
 Sum of Mulliken atomic charges =   0.00000
 Mulliken charges with hydrogens summed into heavy atoms:
              1
     1  C   -0.027897
     5  C    0.055718
     7  C    0.004257
    10  C    0.005659
    13  C   -0.014570
    17  C   -0.023167
 Sum of Mulliken charges with hydrogens summed into heavy atoms =   0.00000
 Electronic spatial extent (au):  <R**2>=            823.4687
 Charge=              0.0000 electrons
 Dipole moment (field-independent basis, Debye):
    X=             -0.0436    Y=              0.0202    Z=             -0.0076  Tot=              0.0486
 Quadrupole moment (field-independent basis, Debye-Ang):
   XX=            -41.9783   YY=            -41.7257   ZZ=            -41.3394
   XY=              0.0845   XZ=             -0.1509   YZ=             -0.0608
 Traceless Quadrupole moment (field-independent basis, Debye-Ang):
   XX=             -0.2972   YY=             -0.0446   ZZ=              0.3417
   XY=              0.0845   XZ=             -0.1509   YZ=             -0.0608
 Octapole moment (field-independent basis, Debye-Ang**2):
  XXX=             -0.6667  YYY=             -1.3843  ZZZ=              0.3437  XYY=             -1.6324
  XXY=              1.2476  XXZ=              0.3105  XZZ=              1.2979  YZZ=              0.5034
  YYZ=             -0.0884  XYZ=              0.4352
 Hexadecapole moment (field-independent basis, Debye-Ang**3):
 XXXX=           -741.1951 YYYY=           -247.7047 ZZZZ=           -151.2783 XXXY=              0.4075
 XXXZ=             -3.0899 YYYX=             -0.2362 YYYZ=             -0.2685 ZZZX=             -1.0961
 ZZZY=              0.5603 XXYY=           -167.2916 XXZZ=           -146.5965 YYZZ=            -68.4883
 XXYZ=             -1.8770 YYXZ=             -0.0108 ZZXY=              0.5483
 N-N= 2.564513112000D+02 E-N=-1.059809711512D+03  KE= 2.346128917794D+02
 No NMR shielding tensors so no spin-rotation constants.
 Leave Link  601 at Fri Sep 18 13:24:00 2015, MaxMem=  402653184 cpu:       0.3
 (Enter /share/apps/g09/l701.exe)
 Compute integral first derivatives.
 ... and contract with generalized density number  0.
 Leave Link  701 at Fri Sep 18 13:24:00 2015, MaxMem=  402653184 cpu:       0.3
 (Enter /share/apps/g09/l702.exe)
 L702 exits ... SP integral derivatives will be done elsewhere.
 Leave Link  702 at Fri Sep 18 13:24:00 2015, MaxMem=  402653184 cpu:       0.0
 (Enter /share/apps/g09/l703.exe)
 Compute integral first derivatives, UseDBF=F ICtDFT=           0.
 Integral derivatives from FoFDir, PRISM(SPDF).
 Calling FoFJK, ICntrl=      2127 FMM=F ISym2X=0 I1Cent= 0 IOpClX= 0 NMat=1 NMatS=1 NMatT=0.
 FoFCou: FMM=F IPFlag=           0 FMFlag=      100000 FMFlg1=         800
         NFxFlg=           0 DoJE=F BraDBF=F KetDBF=F FulRan=T
         Omega=  0.000000  0.000000  1.000000  0.000000  0.000000 ICntrl=    2127 IOpCl=  0
         NMat0=    1 NMatS0=    1 NMatT0=    0 NMatD0=    1 NMtDS0=    0 NMtDT0=    0
         I1Cent=           0 NGrid=           0.
 Symmetry not used in FoFCou.
 Leave Link  703 at Fri Sep 18 13:24:12 2015, MaxMem=  402653184 cpu:      24.2
 (Enter /share/apps/g09/l716.exe)
 Dipole        =-1.71367004D-02 7.95130051D-03-2.99507579D-03
 ***** Axes restored to original set *****
 -------------------------------------------------------------------
 Center     Atomic                   Forces (Hartrees/Bohr)
 Number     Number              X              Y              Z
 -------------------------------------------------------------------
      1        6           0.000407112   -0.000585154   -0.004422015
      2        1          -0.000800245   -0.001246257    0.000155322
      3        1          -0.000358457    0.001110707    0.002031867
      4        1           0.001172288    0.000259758   -0.000889679
      5        6           0.000819229   -0.004036406   -0.001406083
      6        1           0.005778906    0.001319804    0.010431274
      7        6           0.000144489   -0.000258044    0.001643383
      8        1           0.000651373   -0.000481632   -0.004591477
      9        1          -0.000425006    0.004460333   -0.001125036
     10        6          -0.003998725    0.003462413    0.007338140
     11        1          -0.001755049   -0.006429787    0.001798170
     12        1           0.002555160   -0.000117624   -0.005334650
     13        6          -0.002323631    0.001184373   -0.002962738
     14        1           0.000138746   -0.000786790    0.001098848
     15        1          -0.000648664    0.000228170   -0.000563799
     16        1          -0.001116995    0.000148564   -0.000238888
     17        6          -0.002791476    0.001764430   -0.003480209
     18        1           0.001328483    0.001218624   -0.000421351
     19        1           0.000526053   -0.001313005    0.002117461
     20        1           0.000696408    0.000097525   -0.001178540
 -------------------------------------------------------------------
 Cartesian Forces:  Max     0.010431274 RMS     0.002761642
 Leave Link  716 at Fri Sep 18 13:24:12 2015, MaxMem=  402653184 cpu:       0.0
 (Enter /share/apps/g09/l103.exe)

 GradGradGradGradGradGradGradGradGradGradGradGradGradGradGradGradGradGrad
 Berny optimization.
 Internal  Forces:  Max     0.012320737 RMS     0.002541961
 Search for a local minimum.
 Step number   1 out of a maximum of  110
 All quantities printed in internal units (Hartrees-Bohrs-Radians)
 RMS Force = .25420D-02 SwitMx=.10000D-02 MixMth= 1
 Mixed Optimization -- RFO/linear search
 Second derivative matrix not updated -- first step.
     Eigenvalues ---    0.00230   0.00297   0.00302   0.00311   0.00403
     Eigenvalues ---    0.03361   0.03466   0.03592   0.04654   0.04722
     Eigenvalues ---    0.04796   0.04798   0.05367   0.05392   0.05421
     Eigenvalues ---    0.05437   0.05462   0.05481   0.08399   0.08422
     Eigenvalues ---    0.12254   0.12279   0.16000   0.16000   0.16000
     Eigenvalues ---    0.16000   0.16000   0.16000   0.16000   0.16000
     Eigenvalues ---    0.16000   0.16481   0.16696   0.21878   0.21879
     Eigenvalues ---    0.28188   0.28922   0.28959   0.29021   0.29664
     Eigenvalues ---    0.31678   0.32782   0.32809   0.32925   0.32984
     Eigenvalues ---    0.34073   0.34162   0.34166   0.34219   0.34237
     Eigenvalues ---    0.34237   0.34252   0.34274   0.342851000.00000
     Eigenvalues --- 1000.000001000.000001000.000001000.000001000.00000
     Eigenvalues --- 1000.000001000.000001000.000001000.000001000.00000
     Eigenvalues --- 1000.000001000.000001000.000001000.000001000.00000
     Eigenvalues --- 1000.000001000.000001000.000001000.000001000.00000
     Eigenvalues --- 1000.000001000.000001000.000001000.000001000.00000
     Eigenvalues --- 1000.000001000.000001000.000001000.000001000.00000
     Eigenvalues --- 1000.000001000.000001000.000001000.000001000.00000
     Eigenvalues --- 1000.000001000.000001000.000001000.000001000.00000
     Eigenvalues --- 1000.000001000.000001000.000001000.000001000.00000
 RFO step:  Lambda=-2.88034285D-03 EMin= 2.30000000D-03
 Linear search not attempted -- first point.
 Iteration  1 RMS(Cart)=  0.05388337 RMS(Int)=  0.00087506
 Iteration  2 RMS(Cart)=  0.00121916 RMS(Int)=  0.00011505
 Iteration  3 RMS(Cart)=  0.00000089 RMS(Int)=  0.00011505
 Variable       Old X    -DE/DX   Delta X   Delta X   Delta X     New X
                                 (Linear)    (Quad)   (Total)
    R1        2.06870   0.00140   0.00000   0.00406   0.00406   2.07276
    R2        2.06931   0.00176   0.00000   0.00511   0.00511   2.07442
    R3        2.06932   0.00148   0.00000   0.00430   0.00430   2.07362
    R4        2.90165   0.00030   0.00000   0.00101   0.00101   2.90266
    R5        2.11438  -0.01195   0.00000  -0.03739  -0.03739   2.07699
    R6        2.91729   0.00244   0.00000   0.00858   0.00858   2.92587
    R7        2.89959   0.00142   0.00000   0.00485   0.00485   2.90444
    R8        2.09079  -0.00404   0.00000  -0.01215  -0.01215   2.07864
    R9        2.09183  -0.00442   0.00000  -0.01331  -0.01331   2.07852
   R10        2.90089   0.00497   0.00000   0.01700   0.01700   2.91789
   R11        2.09435  -0.00686   0.00000  -0.02073  -0.02073   2.07362
   R12        2.09388  -0.00585   0.00000  -0.01767  -0.01767   2.07621
   R13        2.88639   0.00366   0.00000   0.01222   0.01222   2.89861
   R14        2.07050   0.00095   0.00000   0.00274   0.00274   2.07325
   R15        2.06961   0.00077   0.00000   0.00222   0.00222   2.07183
   R16        2.07207  -0.00039   0.00000  -0.00112  -0.00112   2.07095
   R17        2.07058  -0.00016   0.00000  -0.00048  -0.00048   2.07010
   R18        2.06906   0.00185   0.00000   0.00534   0.00534   2.07441
   R19        2.06851   0.00133   0.00000   0.00385   0.00385   2.07236
    A1        1.87718   0.00087   0.00000   0.00141   0.00135   1.87853
    A2        1.87491   0.00019   0.00000   0.00574   0.00572   1.88063
    A3        1.94561  -0.00012   0.00000  -0.00044  -0.00049   1.94512
    A4        1.87253   0.00076   0.00000   0.00406   0.00408   1.87661
    A5        1.94893  -0.00230   0.00000  -0.01658  -0.01660   1.93232
    A6        1.94093   0.00073   0.00000   0.00661   0.00661   1.94754
    A7        1.88930  -0.00044   0.00000  -0.01912  -0.01915   1.87015
    A8        1.92243   0.00032   0.00000   0.00946   0.00930   1.93173
    A9        1.92527  -0.00091   0.00000   0.00024  -0.00009   1.92518
   A10        1.89169  -0.00043   0.00000  -0.00326  -0.00315   1.88853
   A11        1.89078  -0.00040   0.00000  -0.00975  -0.00981   1.88097
   A12        1.94298   0.00179   0.00000   0.02086   0.02077   1.96375
   A13        1.91181  -0.00545   0.00000  -0.02840  -0.02884   1.88296
   A14        1.91058  -0.00307   0.00000  -0.01239  -0.01233   1.89826
   A15        1.97606   0.01232   0.00000   0.05865   0.05871   2.03477
   A16        1.84190   0.00247   0.00000   0.00071   0.00036   1.84226
   A17        1.90943  -0.00216   0.00000   0.00076   0.00095   1.91038
   A18        1.90925  -0.00482   0.00000  -0.02347  -0.02341   1.88584
   A19        1.91694  -0.00116   0.00000   0.00279   0.00267   1.91961
   A20        1.90362  -0.00123   0.00000  -0.00531  -0.00517   1.89846
   A21        1.96986   0.00529   0.00000   0.02684   0.02678   1.99665
   A22        1.84486   0.00067   0.00000  -0.00693  -0.00701   1.83785
   A23        1.91475  -0.00163   0.00000  -0.00351  -0.00375   1.91100
   A24        1.90957  -0.00226   0.00000  -0.01626  -0.01626   1.89332
   A25        1.94717  -0.00167   0.00000  -0.01073  -0.01072   1.93645
   A26        1.94204   0.00052   0.00000   0.00249   0.00247   1.94451
   A27        1.94481   0.00146   0.00000   0.01011   0.01011   1.95492
   A28        1.87745   0.00037   0.00000   0.00009   0.00008   1.87753
   A29        1.87198   0.00026   0.00000   0.00291   0.00293   1.87492
   A30        1.87677  -0.00095   0.00000  -0.00499  -0.00501   1.87176
   A31        1.94042   0.00310   0.00000   0.02182   0.02187   1.96229
   A32        1.94926  -0.00290   0.00000  -0.01923  -0.01925   1.93002
   A33        1.94275  -0.00045   0.00000  -0.00411  -0.00420   1.93856
   A34        1.87513   0.00016   0.00000   0.00350   0.00361   1.87874
   A35        1.87752  -0.00110   0.00000  -0.00403  -0.00405   1.87347
   A36        1.87524   0.00120   0.00000   0.00218   0.00204   1.87729
    D1       -1.01273  -0.00064   0.00000  -0.01354  -0.01350  -1.02623
    D2        1.05273  -0.00123   0.00000  -0.02344  -0.02342   1.02931
    D3       -3.07871   0.00063   0.00000   0.00958   0.00955  -3.06916
    D4       -3.11295  -0.00008   0.00000  -0.00362  -0.00362  -3.11657
    D5       -1.04749  -0.00067   0.00000  -0.01353  -0.01354  -1.06103
    D6        1.10425   0.00119   0.00000   0.01950   0.01943   1.12369
    D7        1.07915   0.00001   0.00000  -0.00208  -0.00204   1.07711
    D8       -3.13858  -0.00058   0.00000  -0.01199  -0.01196   3.13264
    D9       -0.98684   0.00128   0.00000   0.02104   0.02101  -0.96583
   D10        1.25106  -0.00084   0.00000   0.00814   0.00846   1.25953
   D11       -0.76072   0.00095   0.00000   0.03007   0.03007  -0.73065
   D12       -2.89586   0.00091   0.00000   0.02891   0.02881  -2.86704
   D13       -2.96813  -0.00144   0.00000  -0.01151  -0.01127  -2.97940
   D14        1.30327   0.00035   0.00000   0.01042   0.01034   1.31361
   D15       -0.83187   0.00031   0.00000   0.00926   0.00908  -0.82279
   D16       -0.89030  -0.00113   0.00000  -0.01309  -0.01292  -0.90322
   D17       -2.90209   0.00066   0.00000   0.00884   0.00869  -2.89340
   D18        1.24596   0.00062   0.00000   0.00768   0.00743   1.25339
   D19        3.14030  -0.00084   0.00000  -0.03133  -0.03130   3.10899
   D20       -1.04862  -0.00048   0.00000  -0.02500  -0.02507  -1.07370
   D21        1.04739  -0.00123   0.00000  -0.03815  -0.03813   1.00926
   D22        1.07522   0.00046   0.00000  -0.00245  -0.00244   1.07278
   D23       -3.11370   0.00082   0.00000   0.00388   0.00379  -3.10991
   D24       -1.01769   0.00007   0.00000  -0.00927  -0.00927  -1.02696
   D25       -1.00315   0.00017   0.00000  -0.00473  -0.00466  -1.00781
   D26        1.09112   0.00053   0.00000   0.00160   0.00156   1.09268
   D27       -3.09606  -0.00022   0.00000  -0.01156  -0.01149  -3.10755
   D28       -0.85774  -0.00013   0.00000  -0.01971  -0.02000  -0.87774
   D29       -2.87203   0.00040   0.00000  -0.00996  -0.01017  -2.88220
   D30        1.28484   0.00062   0.00000  -0.00340  -0.00360   1.28124
   D31        1.27984  -0.00023   0.00000  -0.01526  -0.01515   1.26469
   D32       -0.73444   0.00030   0.00000  -0.00550  -0.00533  -0.73977
   D33       -2.86076   0.00052   0.00000   0.00105   0.00125  -2.85951
   D34       -2.99362  -0.00114   0.00000  -0.02699  -0.02698  -3.02060
   D35        1.27528  -0.00061   0.00000  -0.01724  -0.01715   1.25813
   D36       -0.85104  -0.00039   0.00000  -0.01068  -0.01057  -0.86161
   D37        1.05488  -0.00011   0.00000  -0.01349  -0.01355   1.04133
   D38       -3.13140  -0.00042   0.00000  -0.01897  -0.01902   3.13277
   D39       -1.03696  -0.00030   0.00000  -0.01678  -0.01681  -1.05377
   D40       -3.08450   0.00090   0.00000   0.00628   0.00624  -3.07826
   D41       -0.98759   0.00058   0.00000   0.00080   0.00077  -0.98682
   D42        1.10685   0.00071   0.00000   0.00299   0.00298   1.10983
   D43       -1.06808  -0.00049   0.00000  -0.01321  -0.01315  -1.08123
   D44        1.02883  -0.00080   0.00000  -0.01869  -0.01862   1.01021
   D45        3.12327  -0.00067   0.00000  -0.01649  -0.01641   3.10686
         Item               Value     Threshold  Converged?
 Maximum Force            0.012321     0.000015     NO 
 RMS     Force            0.002542     0.000010     NO 
 Maximum Displacement     0.207864     0.000060     NO 
 RMS     Displacement     0.053843     0.000040     NO 
 Predicted change in Energy=-1.471209D-03
 GradGradGradGradGradGradGradGradGradGradGradGradGradGradGradGradGradGrad

 Leave Link  103 at Fri Sep 18 13:24:13 2015, MaxMem=  402653184 cpu:       0.1
 (Enter /share/apps/g09/l202.exe)
                          Input orientation:                          
 ---------------------------------------------------------------------
 Center     Atomic      Atomic             Coordinates (Angstroms)
 Number     Number       Type             X           Y           Z
 ---------------------------------------------------------------------
      1          6           0        2.022243   -1.039425   -0.104167
      2          1           0        1.681044   -2.074707   -0.226121
      3          1           0        2.469675   -0.952236    0.894447
      4          1           0        2.817146   -0.860356   -0.839121
      5          6           0        0.864715   -0.043389   -0.269723
      6          1           0        0.445320   -0.197828   -1.273849
      7          6           0       -0.249714   -0.322776    0.768179
      8          1           0        0.120550   -0.007086    1.754675
      9          1           0       -0.398804   -1.409948    0.843190
     10          6           0       -1.622703    0.331115    0.500765
     11          1           0       -1.494959    1.401860    0.297591
     12          1           0       -2.223592    0.279942    1.419142
     13          6           0       -2.420775   -0.314473   -0.639009
     14          1           0       -2.618072   -1.373102   -0.429154
     15          1           0       -3.388542    0.180900   -0.780625
     16          1           0       -1.886722   -0.263331   -1.594605
     17          6           0        1.388385    1.399778   -0.196922
     18          1           0        0.594677    2.140352   -0.343839
     19          1           0        1.848373    1.594537    0.780569
     20          1           0        2.151094    1.581595   -0.963636
 ---------------------------------------------------------------------
                    Distance matrix (angstroms):
                    1          2          3          4          5
     1  C    0.000000
     2  H    1.096859   0.000000
     3  H    1.097738   1.771314   0.000000
     4  H    1.097312   1.772327   1.770434   0.000000
     5  C    1.536024   2.189646   2.181099   2.191720   0.000000
     6  H    2.136147   2.479399   3.060825   2.500697   1.099096
     7  C    2.536998   2.790291   2.794144   3.504002   1.548305
     8  H    2.852622   3.260944   2.674265   3.837639   2.157147
     9  H    2.626070   2.431276   2.905220   3.670770   2.168534
    10  C    3.940806   4.151035   4.306917   4.788231   2.630808
    11  H    4.300231   4.737910   4.649337   5.000398   2.824650
    12  H    4.699821   4.847417   4.880607   5.639953   3.534748
    13  C    4.533433   4.482613   5.164759   5.270090   3.317273
    14  H    4.663634   4.360719   5.273919   5.474721   3.731402
    15  H    5.587788   5.576374   6.197465   6.292710   4.289699
    16  H    4.254848   4.228805   5.064402   4.801413   3.061714
    17  C    2.521922   3.486911   2.809314   2.749906   1.536965
    18  H    3.493761   4.354398   3.822705   3.766819   2.201622
    19  H    2.784015   3.808514   2.623936   3.096516   2.180251
    20  H    2.761346   3.759444   3.158206   2.534217   2.185603
                    6          7          8          9         10
     6  H    0.000000
     7  C    2.160685   0.000000
     8  H    3.051854   1.099968   0.000000
     9  H    2.581402   1.099908   1.751729   0.000000
    10  C    2.775924   1.544080   2.173845   2.155570   0.000000
    11  H    2.965318   2.178637   2.591928   3.066838   1.097312
    12  H    3.821460   2.164074   2.385365   2.552900   1.098683
    13  C    2.937878   2.587229   3.504645   2.735936   1.533879
    14  H    3.388090   2.854105   3.759675   2.558392   2.181712
    15  H    3.883968   3.536202   4.333221   3.755809   2.186941
    16  H    2.354909   2.875079   3.913116   3.077576   2.194003
    17  C    2.145108   2.565537   2.719449   3.488615   3.270391
    18  H    2.520776   2.831357   3.039745   3.873070   2.983868
    19  H    3.066229   2.842219   2.549402   3.752420   3.704442
    20  H    2.484400   3.519899   3.746496   4.326191   4.236710
                   11         12         13         14         15
    11  H    0.000000
    12  H    1.745704   0.000000
    13  C    2.163366   2.151324   0.000000
    14  H    3.080578   2.510850   1.097115   0.000000
    15  H    2.497789   2.491163   1.096368   1.769768   0.000000
    16  H    2.550833   3.080795   1.095898   1.767694   1.765040
    17  C    2.925443   4.112429   4.200451   4.877960   4.964413
    18  H    2.307245   3.809445   3.899518   4.761659   4.460523
    19  H    3.383528   4.326296   4.887243   5.497222   5.644552
    20  H    3.862214   5.148768   4.960084   5.635677   5.716905
                   16         17         18         19         20
    16  H    0.000000
    17  C    3.930111   0.000000
    18  H    3.674159   1.095448   0.000000
    19  H    4.800423   1.097729   1.770300   0.000000
    20  H    4.483953   1.096646   1.766010   1.770327   0.000000
 Stoichiometry    C6H14
 Framework group  C1[X(C6H14)]
 Deg. of freedom    54
 Full point group                 C1      NOp   1
 Largest Abelian subgroup         C1      NOp   1
 Largest concise Abelian subgroup C1      NOp   1
                         Standard orientation:                         
 ---------------------------------------------------------------------
 Center     Atomic      Atomic             Coordinates (Angstroms)
 Number     Number       Type             X           Y           Z
 ---------------------------------------------------------------------
      1          6           0        2.009494   -1.064534   -0.112085
      2          1           0        1.655978   -2.094630   -0.242575
      3          1           0        2.458446   -0.991106    0.886953
      4          1           0        2.806083   -0.888690   -0.845991
      5          6           0        0.863774   -0.053480   -0.268500
      6          1           0        0.442057   -0.194438   -1.273636
      7          6           0       -0.253352   -0.328407    0.767692
      8          1           0        0.121140   -0.025484    1.756591
      9          1           0       -0.415286   -1.414330    0.833603
     10          6           0       -1.618628    0.343954    0.506663
     11          1           0       -1.478300    1.414790    0.312468
     12          1           0       -2.219606    0.292141    1.424946
     13          6           0       -2.424891   -0.282463   -0.638033
     14          1           0       -2.634620   -1.340417   -0.437012
     15          1           0       -3.386788    0.225528   -0.774858
     16          1           0       -1.890764   -0.229574   -1.593493
     17          6           0        1.404560    1.382709   -0.183828
     18          1           0        0.619615    2.133857   -0.323990
     19          1           0        1.867332    1.563726    0.794989
     20          1           0        2.168974    1.561951   -0.949449
 ---------------------------------------------------------------------
 Rotational constants (GHZ):      5.4539918      1.8743638      1.6787478
 Leave Link  202 at Fri Sep 18 13:24:13 2015, MaxMem=  402653184 cpu:       0.0
 (Enter /share/apps/g09/l301.exe)
 Standard basis: 6-31G(d) (6D, 7F)
 Ernie: Thresh=  0.10000D-02 Tol=  0.10000D-05 Strict=F.
 There are   118 symmetry adapted basis functions of A   symmetry.
 Integral buffers will be    131072 words long.
 Raffenetti 2 integral format.
 Two-electron integral symmetry is turned on.
   118 basis functions,   224 primitive gaussians,   118 cartesian basis functions
    25 alpha electrons       25 beta electrons
       nuclear repulsion energy       254.6622774836 Hartrees.
 IExCor=  402 DFT=T Ex+Corr=B3LYP ExCW=0 ScaHFX=  0.200000
 ScaDFX=  0.800000  0.720000  1.000000  0.810000 ScalE2=  1.000000  1.000000
 IRadAn=      5 IRanWt=     -1 IRanGd=            0 ICorTp=0
 NAtoms=   20 NActive=   20 NUniq=   20 SFac= 7.50D-01 NAtFMM=   80 NAOKFM=F Big=F
 Leave Link  301 at Fri Sep 18 13:24:13 2015, MaxMem=  402653184 cpu:       0.1
 (Enter /share/apps/g09/l302.exe)
 NPDir=0 NMtPBC=     1 NCelOv=     1 NCel=       1 NClECP=     1 NCelD=      1
         NCelK=      1 NCelE2=     1 NClLst=     1 CellRange=     0.0.
 One-electron integrals computed using PRISM.
 NBasis=   118 RedAO= T  NBF=   118
 NBsUse=   118 1.00D-06 NBFU=   118
 Precomputing XC quadrature grid using
 IXCGrd= 2 IRadAn=           5 IRanWt=          -1 IRanGd=           0 AccXCQ= 1.00D-10.
 NRdTot=    1645 NPtTot=      440632 NUsed=      452420 NTot=      452452
 NSgBfM=   118   118   118   118   118 NAtAll=    20    20.
 Leave Link  302 at Fri Sep 18 13:24:13 2015, MaxMem=  402653184 cpu:       1.2
 (Enter /share/apps/g09/l303.exe)
 DipDrv:  MaxL=1.
 Leave Link  303 at Fri Sep 18 13:24:13 2015, MaxMem=  402653184 cpu:       0.1
 (Enter /share/apps/g09/l401.exe)
 Initial guess read from the read-write file.
 B after Tr=     0.000000    0.000000    0.000000
         Rot=    1.000000    0.000000    0.000000    0.000000 Ang=   0.00 deg.
 Guess basis will be translated and rotated to current coordinates.
 Initial guess orbital symmetries:
       Occupied  (A) (A) (A) (A) (A) (A) (A) (A) (A) (A) (A) (A)
                 (A) (A) (A) (A) (A) (A) (A) (A) (A) (A) (A) (A)
                 (A)
       Virtual   (A) (A) (A) (A) (A) (A) (A) (A) (A) (A) (A) (A)
                 (A) (A) (A) (A) (A) (A) (A) (A) (A) (A) (A) (A)
                 (A) (A) (A) (A) (A) (A) (A) (A) (A) (A) (A) (A)
                 (A) (A) (A) (A) (A) (A) (A) (A) (A) (A) (A) (A)
                 (A) (A) (A) (A) (A) (A) (A) (A) (A) (A) (A) (A)
                 (A) (A) (A) (A) (A) (A) (A) (A) (A) (A) (A) (A)
                 (A) (A) (A) (A) (A) (A) (A) (A) (A) (A) (A) (A)
                 (A) (A) (A) (A) (A) (A) (A) (A) (A)
 The electronic state of the initial guess is 1-A.
 Generating alternative initial guess.
 Harris functional with IExCor=  402 diagonalized for initial guess.
 ExpMin= 1.61D-01 ExpMax= 3.05D+03 ExpMxC= 4.57D+02 IAcc=3 IRadAn=         5 AccDes= 0.00D+00
 HarFok:  IExCor=  402 AccDes= 0.00D+00 IRadAn=         5 IDoV= 1
 ScaDFX=  1.000000  1.000000  1.000000  1.000000
 FoFCou: FMM=F IPFlag=           0 FMFlag=      100000 FMFlg1=           0
         NFxFlg=           0 DoJE=T BraDBF=F KetDBF=T FulRan=T
         Omega=  0.000000  0.000000  1.000000  0.000000  0.000000 ICntrl=     500 IOpCl=  0
         NMat0=    1 NMatS0=    1 NMatT0=    0 NMatD0=    1 NMtDS0=    0 NMtDT0=    0
         I1Cent=           4 NGrid=           0.
 Petite list used in FoFCou.
 Harris En= -237.181037700179    
 Leave Link  401 at Fri Sep 18 13:24:19 2015, MaxMem=  402653184 cpu:      10.4
 (Enter /share/apps/g09/l502.exe)
 Closed shell SCF:
 Requested convergence on RMS density matrix=1.00D-08 within 128 cycles.
 Requested convergence on MAX density matrix=1.00D-06.
 Requested convergence on             energy=1.00D-06.
 No special actions if energy rises.
 Using DIIS extrapolation, IDIIS=  1040.
 Integral symmetry usage will be decided dynamically.
       452227 words used for storage of precomputed grid.
 Keep R1 ints in memory in canonical form, NReq=26106282.
 IEnd=      513771 IEndB=      513771 NGot=   402653184 MDV=   377519337
 LenX=   377519337 LenY=   377504972
 Symmetry not used in FoFDir.
 MinBra= 0 MaxBra= 2 Meth= 1.
 IRaf=       0 NMat=   1 IRICut=       1 DoRegI=T DoRafI=F ISym2E= 0 JSym2E=0.
 Integral accuracy reduced to 1.0D-05 until final iterations.

 Cycle   1  Pass 0  IDiag  1:
 E= -237.080328692145    
 DIIS: error= 2.15D-03 at cycle   1 NSaved=   1.
 NSaved= 1 IEnMin= 1 EnMin= -237.080328692145     IErMin= 1 ErrMin= 2.15D-03
 ErrMax= 2.15D-03 EMaxC= 1.00D-01 BMatC= 1.32D-03 BMatP= 1.32D-03
 IDIUse=3 WtCom= 9.79D-01 WtEn= 2.15D-02
 Coeff-Com:  0.100D+01
 Coeff-En:   0.100D+01
 Coeff:      0.100D+01
 Gap=     0.388 Goal=   None    Shift=    0.000
 GapD=    0.388 DampG=1.000 DampE=1.000 DampFc=1.0000 IDamp=-1.
 RMSDP=4.52D-04 MaxDP=6.47D-03              OVMax= 1.17D-02

 Cycle   2  Pass 0  IDiag  1:
 E= -237.082878643591     Delta-E=       -0.002549951446 Rises=F Damp=F
 DIIS: error= 3.25D-04 at cycle   2 NSaved=   2.
 NSaved= 2 IEnMin= 2 EnMin= -237.082878643591     IErMin= 2 ErrMin= 3.25D-04
 ErrMax= 3.25D-04 EMaxC= 1.00D-01 BMatC= 3.23D-05 BMatP= 1.32D-03
 IDIUse=3 WtCom= 9.97D-01 WtEn= 3.25D-03
 Coeff-Com: -0.299D-01 0.103D+01
 Coeff-En:   0.000D+00 0.100D+01
 Coeff:     -0.298D-01 0.103D+01
 Gap=     0.385 Goal=   None    Shift=    0.000
 RMSDP=1.03D-04 MaxDP=1.80D-03 DE=-2.55D-03 OVMax= 2.30D-03

 Cycle   3  Pass 0  IDiag  1:
 E= -237.082899941630     Delta-E=       -0.000021298039 Rises=F Damp=F
 DIIS: error= 2.91D-04 at cycle   3 NSaved=   3.
 NSaved= 3 IEnMin= 3 EnMin= -237.082899941630     IErMin= 3 ErrMin= 2.91D-04
 ErrMax= 2.91D-04 EMaxC= 1.00D-01 BMatC= 2.60D-05 BMatP= 3.23D-05
 IDIUse=3 WtCom= 9.97D-01 WtEn= 2.91D-03
 Coeff-Com: -0.365D-01 0.500D+00 0.536D+00
 Coeff-En:   0.000D+00 0.260D+00 0.740D+00
 Coeff:     -0.364D-01 0.500D+00 0.537D+00
 Gap=     0.386 Goal=   None    Shift=    0.000
 RMSDP=4.73D-05 MaxDP=1.07D-03 DE=-2.13D-05 OVMax= 1.08D-03

 Cycle   4  Pass 0  IDiag  1:
 E= -237.082924782001     Delta-E=       -0.000024840370 Rises=F Damp=F
 DIIS: error= 5.72D-05 at cycle   4 NSaved=   4.
 NSaved= 4 IEnMin= 4 EnMin= -237.082924782001     IErMin= 4 ErrMin= 5.72D-05
 ErrMax= 5.72D-05 EMaxC= 1.00D-01 BMatC= 9.02D-07 BMatP= 2.60D-05
 IDIUse=1 WtCom= 1.00D+00 WtEn= 0.00D+00
 Coeff-Com: -0.143D-01 0.150D+00 0.224D+00 0.640D+00
 Coeff:     -0.143D-01 0.150D+00 0.224D+00 0.640D+00
 Gap=     0.386 Goal=   None    Shift=    0.000
 RMSDP=9.93D-06 MaxDP=1.59D-04 DE=-2.48D-05 OVMax= 1.97D-04

 Initial convergence to 1.0D-05 achieved.  Increase integral accuracy.
 Cycle   5  Pass 1  IDiag  1:
 E= -237.082928762007     Delta-E=       -0.000003980007 Rises=F Damp=F
 DIIS: error= 8.91D-06 at cycle   1 NSaved=   1.
 NSaved= 1 IEnMin= 1 EnMin= -237.082928762007     IErMin= 1 ErrMin= 8.91D-06
 ErrMax= 8.91D-06 EMaxC= 1.00D-01 BMatC= 2.70D-08 BMatP= 2.70D-08
 IDIUse=1 WtCom= 1.00D+00 WtEn= 0.00D+00
 Coeff-Com:  0.100D+01
 Coeff:      0.100D+01
 Gap=     0.386 Goal=   None    Shift=    0.000
 RMSDP=9.93D-06 MaxDP=1.59D-04 DE=-3.98D-06 OVMax= 6.24D-05

 Cycle   6  Pass 1  IDiag  1:
 E= -237.082928765686     Delta-E=       -0.000000003679 Rises=F Damp=F
 DIIS: error= 8.99D-06 at cycle   2 NSaved=   2.
 NSaved= 2 IEnMin= 2 EnMin= -237.082928765686     IErMin= 1 ErrMin= 8.91D-06
 ErrMax= 8.99D-06 EMaxC= 1.00D-01 BMatC= 2.69D-08 BMatP= 2.70D-08
 IDIUse=1 WtCom= 1.00D+00 WtEn= 0.00D+00
 Coeff-Com:  0.499D+00 0.501D+00
 Coeff:      0.499D+00 0.501D+00
 Gap=     0.386 Goal=   None    Shift=    0.000
 RMSDP=1.73D-06 MaxDP=3.18D-05 DE=-3.68D-09 OVMax= 3.51D-05

 Cycle   7  Pass 1  IDiag  1:
 E= -237.082928792984     Delta-E=       -0.000000027298 Rises=F Damp=F
 DIIS: error= 1.49D-06 at cycle   3 NSaved=   3.
 NSaved= 3 IEnMin= 3 EnMin= -237.082928792984     IErMin= 3 ErrMin= 1.49D-06
 ErrMax= 1.49D-06 EMaxC= 1.00D-01 BMatC= 6.97D-10 BMatP= 2.69D-08
 IDIUse=1 WtCom= 1.00D+00 WtEn= 0.00D+00
 Coeff-Com:  0.123D+00 0.184D+00 0.693D+00
 Coeff:      0.123D+00 0.184D+00 0.693D+00
 Gap=     0.386 Goal=   None    Shift=    0.000
 RMSDP=3.22D-07 MaxDP=5.25D-06 DE=-2.73D-08 OVMax= 6.56D-06

 Cycle   8  Pass 1  IDiag  1:
 E= -237.082928793658     Delta-E=       -0.000000000674 Rises=F Damp=F
 DIIS: error= 3.77D-07 at cycle   4 NSaved=   4.
 NSaved= 4 IEnMin= 4 EnMin= -237.082928793658     IErMin= 4 ErrMin= 3.77D-07
 ErrMax= 3.77D-07 EMaxC= 1.00D-01 BMatC= 4.63D-11 BMatP= 6.97D-10
 IDIUse=1 WtCom= 1.00D+00 WtEn= 0.00D+00
 Coeff-Com: -0.119D-01 0.661D-02 0.225D+00 0.780D+00
 Coeff:     -0.119D-01 0.661D-02 0.225D+00 0.780D+00
 Gap=     0.386 Goal=   None    Shift=    0.000
 RMSDP=7.76D-08 MaxDP=1.32D-06 DE=-6.74D-10 OVMax= 1.51D-06

 Cycle   9  Pass 1  IDiag  1:
 E= -237.082928793707     Delta-E=       -0.000000000050 Rises=F Damp=F
 DIIS: error= 6.93D-08 at cycle   5 NSaved=   5.
 NSaved= 5 IEnMin= 5 EnMin= -237.082928793707     IErMin= 5 ErrMin= 6.93D-08
 ErrMax= 6.93D-08 EMaxC= 1.00D-01 BMatC= 1.04D-12 BMatP= 4.63D-11
 IDIUse=1 WtCom= 1.00D+00 WtEn= 0.00D+00
 Coeff-Com: -0.613D-02 0.876D-03 0.842D-01 0.319D+00 0.602D+00
 Coeff:     -0.613D-02 0.876D-03 0.842D-01 0.319D+00 0.602D+00
 Gap=     0.386 Goal=   None    Shift=    0.000
 RMSDP=9.45D-09 MaxDP=2.05D-07 DE=-4.97D-11 OVMax= 2.04D-07

 SCF Done:  E(RB3LYP) =  -237.082928794     A.U. after    9 cycles
             Convg  =    0.9448D-08             -V/T =  2.0105
 KE= 2.346088543151D+02 PE=-1.056228986677D+03 EE= 3.298749260842D+02
 Leave Link  502 at Fri Sep 18 13:25:02 2015, MaxMem=  402653184 cpu:      87.7
 (Enter /share/apps/g09/l701.exe)
 Compute integral first derivatives.
 ... and contract with generalized density number  0.
 Leave Link  701 at Fri Sep 18 13:25:03 2015, MaxMem=  402653184 cpu:       0.3
 (Enter /share/apps/g09/l702.exe)
 L702 exits ... SP integral derivatives will be done elsewhere.
 Leave Link  702 at Fri Sep 18 13:25:03 2015, MaxMem=  402653184 cpu:       0.0
 (Enter /share/apps/g09/l703.exe)
 Compute integral first derivatives, UseDBF=F ICtDFT=           0.
 Integral derivatives from FoFDir, PRISM(SPDF).
 Calling FoFJK, ICntrl=      2127 FMM=F ISym2X=0 I1Cent= 0 IOpClX= 0 NMat=1 NMatS=1 NMatT=0.
 FoFCou: FMM=F IPFlag=           0 FMFlag=      100000 FMFlg1=         800
         NFxFlg=           0 DoJE=F BraDBF=F KetDBF=F FulRan=T
         Omega=  0.000000  0.000000  1.000000  0.000000  0.000000 ICntrl=    2127 IOpCl=  0
         NMat0=    1 NMatS0=    1 NMatT0=    0 NMatD0=    1 NMtDS0=    0 NMtDT0=    0
         I1Cent=           0 NGrid=           0.
 Symmetry not used in FoFCou.
 Leave Link  703 at Fri Sep 18 13:25:15 2015, MaxMem=  402653184 cpu:      24.8
 (Enter /share/apps/g09/l716.exe)
 Dipole        =-2.58968936D-02 7.33664260D-03-7.96393476D-03
 ***** Axes restored to original set *****
 -------------------------------------------------------------------
 Center     Atomic                   Forces (Hartrees/Bohr)
 Number     Number              X              Y              Z
 -------------------------------------------------------------------
      1        6           0.000162726   -0.000313954    0.000839135
      2        1          -0.000087355    0.000225195    0.000126649
      3        1           0.000377451   -0.000244930    0.000299975
      4        1          -0.000552248    0.000336013    0.000190167
      5        6          -0.001823152   -0.000464829   -0.001296382
      6        1          -0.000720974    0.000036281   -0.000783121
      7        6           0.000282154   -0.000122712   -0.000283339
      8        1          -0.000556331    0.000640369    0.000216110
      9        1           0.000030685   -0.000210321   -0.000328562
     10        6           0.001185371    0.000694870    0.000619880
     11        1           0.000485737    0.000765778   -0.000441181
     12        1           0.000746111   -0.000763447    0.000189098
     13        6           0.000860053   -0.000397488   -0.000577370
     14        1           0.000073984   -0.000122957    0.000035283
     15        1           0.000237615    0.000253915    0.000540221
     16        1           0.000394291    0.000065446   -0.000214055
     17        6          -0.000550599   -0.000144291    0.000461137
     18        1          -0.000625443   -0.000170718    0.000118849
     19        1           0.000107376    0.000236605    0.000288889
     20        1          -0.000027451   -0.000298823   -0.000001384
 -------------------------------------------------------------------
 Cartesian Forces:  Max     0.001823152 RMS     0.000526738
 Leave Link  716 at Fri Sep 18 13:25:15 2015, MaxMem=  402653184 cpu:       0.0
 (Enter /share/apps/g09/l103.exe)

 GradGradGradGradGradGradGradGradGradGradGradGradGradGradGradGradGradGrad
 Berny optimization.
 Using GEDIIS/GDIIS optimizer.
 Internal  Forces:  Max     0.003356112 RMS     0.000757217
 Search for a local minimum.
 Step number   2 out of a maximum of  110
 All quantities printed in internal units (Hartrees-Bohrs-Radians)
 RMS Force = .75722D-03 SwitMx=.10000D-02 MixMth= 2
 Mixed Optimization -- En-DIIS/RFO-DIIS
 Update second derivatives using D2CorX and points    1    2
 DE= -1.03D-03 DEPred=-1.47D-03 R= 6.97D-01
 SS=  1.41D+00  RLast= 1.52D-01 DXNew= 5.0454D-01 4.5498D-01
 Trust test= 6.97D-01 RLast= 1.52D-01 DXMaxT set to 4.55D-01
 Use linear search instead of GDIIS.
[...]

 Largest change from initial coordinates is atom   12       0.501 Angstoms.
 Leave Link  103 at Fri Sep 18 13:32:44 2015, MaxMem=  402653184 cpu:       0.0
 (Enter /share/apps/g09/l202.exe)
                          Input orientation:                          
 ---------------------------------------------------------------------
 Center     Atomic      Atomic             Coordinates (Angstroms)
 Number     Number       Type             X           Y           Z
 ---------------------------------------------------------------------
      1          6           0        2.079218   -1.020314   -0.006863
      2          1           0        1.823166   -2.086538    0.012222
      3          1           0        2.532232   -0.770132    0.961656
      4          1           0        2.844184   -0.872486   -0.778566
      5          6           0        0.840710   -0.151360   -0.274134
      6          1           0        0.437301   -0.445893   -1.254133
      7          6           0       -0.239397   -0.421668    0.793931
      8          1           0        0.169653   -0.142645    1.776858
      9          1           0       -0.419969   -1.506139    0.838553
     10          6           0       -1.590595    0.289007    0.601748
     11          1           0       -1.448277    1.377595    0.620904
     12          1           0       -2.223683    0.057000    1.468908
     13          6           0       -2.338826   -0.105899   -0.677189
     14          1           0       -2.496689   -1.190924   -0.723191
     15          1           0       -3.322755    0.375082   -0.721992
     16          1           0       -1.790075    0.186016   -1.579859
     17          6           0        1.230388    1.332557   -0.351539
     18          1           0        0.380882    1.969382   -0.621626
     19          1           0        1.617842    1.685406    0.613667
     20          1           0        2.014026    1.493373   -1.101567
 ---------------------------------------------------------------------
                    Distance matrix (angstroms):
                    1          2          3          4          5
     1  C    0.000000
     2  H    1.096704   0.000000
     3  H    1.098108   1.771192   0.000000
     4  H    1.096609   1.772496   1.770921   0.000000
     5  C    1.536365   2.189094   2.184331   2.188237   0.000000
     6  H    2.140452   2.493189   3.066527   2.490227   1.099948
     7  C    2.524999   2.763517   2.798479   3.490623   1.542874
     8  H    2.756519   3.102703   2.576834   3.770407   2.157999
     9  H    2.682664   2.459948   3.045054   3.697470   2.159354
    10  C    3.943634   4.200538   4.271886   4.787650   2.621514
    11  H    4.311296   4.803441   4.535779   5.044462   2.894522
    12  H    4.674769   4.805588   4.853884   5.621242   3.531588
    13  C    4.561206   4.660515   5.182106   5.240374   3.205303
    14  H    4.634776   4.472595   5.320321   5.350644   3.524284
    15  H    5.624931   5.751448   6.198957   6.292119   4.220446
    16  H    4.347525   4.555737   5.104494   4.820669   2.956310
    17  C    2.524939   3.489114   2.800104   2.765665   1.536181
    18  H    3.492930   4.351142   3.826229   3.764133   2.197667
    19  H    2.814044   3.825108   2.643269   3.159910   2.183079
    20  H    2.742490   3.754027   3.106265   2.527999   2.183224
                    6          7          8          9         10
     6  H    0.000000
     7  C    2.157098   0.000000
     8  H    3.057859   1.100600   0.000000
     9  H    2.497672   1.100306   1.757039   0.000000
    10  C    2.845476   1.538743   2.160018   2.156151   0.000000
    11  H    3.224325   2.174552   2.503009   3.069317   1.098019
    12  H    3.840402   2.149910   2.421312   2.468630   1.098451
    13  C    2.855755   2.582926   3.509438   2.817828   1.533453
    14  H    3.073315   2.826443   3.802435   2.617474   2.183270
    15  H    3.885254   3.527029   4.325414   3.794794   2.181760
    16  H    2.338078   2.899787   3.900782   3.254120   2.193128
    17  C    2.146287   2.559233   2.798473   3.492591   3.155265
    18  H    2.497359   2.847046   3.202811   3.853924   2.864791
    19  H    3.069982   2.814532   2.606153   3.793310   3.499163
    20  H    2.504016   3.512579   3.789934   4.322670   4.164742
                   11         12         13         14         15
    11  H    0.000000
    12  H    1.750525   0.000000
    13  C    2.163070   2.155347   0.000000
    14  H    3.082702   2.537153   1.097414   0.000000
    15  H    2.514373   2.471675   1.096115   1.770527   0.000000
    16  H    2.525874   3.082149   1.095973   1.768940   1.766576
    17  C    2.850073   4.107515   3.861928   4.516324   4.667452
    18  H    2.289086   3.848545   3.421503   4.275309   4.033459
    19  H    3.081539   4.259162   4.531037   5.195173   5.283033
    20  H    3.868831   5.160300   4.656725   5.262621   5.465884
                   16         17         18         19         20
    16  H    0.000000
    17  C    3.456374   0.000000
    18  H    2.968444   1.095515   0.000000
    19  H    4.321298   1.098292   1.771062   0.000000
    20  H    4.050819   1.096582   1.767509   1.770837   0.000000
 Stoichiometry    C6H14
 Framework group  C1[X(C6H14)]
 Deg. of freedom    54
 Full point group                 C1      NOp   1
 Largest Abelian subgroup         C1      NOp   1
 Largest concise Abelian subgroup C1      NOp   1
                         Standard orientation:                         
 ---------------------------------------------------------------------
 Center     Atomic      Atomic             Coordinates (Angstroms)
 Number     Number       Type             X           Y           Z
 ---------------------------------------------------------------------
      1          6           0        2.138732   -0.840696   -0.262726
      2          1           0        1.950247   -1.879291   -0.560302
      3          1           0        2.574280   -0.857794    0.745166
      4          1           0        2.893544   -0.428251   -0.942946
      5          6           0        0.848242   -0.007403   -0.288725
      6          1           0        0.465001   -0.026310   -1.319577
      7          6           0       -0.213636   -0.642238    0.633154
      8          1           0        0.176207   -0.638653    1.662391
      9          1           0       -0.325666   -1.701190    0.356128
     10          6           0       -1.606701    0.011287    0.630647
     11          1           0       -1.533163    1.053239    0.969132
     12          1           0       -2.224683   -0.501498    1.380143
     13          6           0       -2.327509   -0.036722   -0.721983
     14          1           0       -2.416762   -1.068361   -1.085403
     15          1           0       -3.339709    0.376502   -0.643471
     16          1           0       -1.797436    0.538567   -1.489590
     17          6           0        1.143862    1.454917    0.077442
     18          1           0        0.256208    2.090778   -0.011468
     19          1           0        1.507523    1.532851    1.110845
     20          1           0        1.916474    1.874542   -0.577903
 ---------------------------------------------------------------------
 Rotational constants (GHZ):      5.4699027      1.9338975      1.7498889
 Leave Link  202 at Fri Sep 18 13:32:44 2015, MaxMem=  402653184 cpu:       0.0
 (Enter /share/apps/g09/l601.exe)
 Copying SCF densities to generalized density rwf, IOpCl= 0 IROHF=0.

 **********************************************************************

            Population analysis using the SCF density.

 **********************************************************************

 Orbital symmetries:
       Occupied  (A) (A) (A) (A) (A) (A) (A) (A) (A) (A) (A) (A)
                 (A) (A) (A) (A) (A) (A) (A) (A) (A) (A) (A) (A)
                 (A)
       Virtual   (A) (A) (A) (A) (A) (A) (A) (A) (A) (A) (A) (A)
                 (A) (A) (A) (A) (A) (A) (A) (A) (A) (A) (A) (A)
                 (A) (A) (A) (A) (A) (A) (A) (A) (A) (A) (A) (A)
                 (A) (A) (A) (A) (A) (A) (A) (A) (A) (A) (A) (A)
                 (A) (A) (A) (A) (A) (A) (A) (A) (A) (A) (A) (A)
                 (A) (A) (A) (A) (A) (A) (A) (A) (A) (A) (A) (A)
                 (A) (A) (A) (A) (A) (A) (A) (A) (A) (A) (A) (A)
                 (A) (A) (A) (A) (A) (A) (A) (A) (A)
 The electronic state is 1-A.
 Alpha  occ. eigenvalues --  -10.18232 -10.17598 -10.17271 -10.16993 -10.16813
 Alpha  occ. eigenvalues --  -10.16799  -0.80549  -0.75284  -0.67661  -0.67047
 Alpha  occ. eigenvalues --   -0.59450  -0.54217  -0.46363  -0.44953  -0.42195
 Alpha  occ. eigenvalues --   -0.41482  -0.39985  -0.37934  -0.37228  -0.35207
 Alpha  occ. eigenvalues --   -0.34250  -0.33680  -0.31360  -0.30909  -0.30218
 Alpha virt. eigenvalues --    0.08151   0.11763   0.12350   0.13217   0.15002
 Alpha virt. eigenvalues --    0.15568   0.15968   0.17262   0.18200   0.18787
 Alpha virt. eigenvalues --    0.19491   0.21135   0.21348   0.22734   0.24159
 Alpha virt. eigenvalues --    0.24651   0.26311   0.26382   0.29463   0.50427
 Alpha virt. eigenvalues --    0.50789   0.51293   0.52169   0.53949   0.56588
 Alpha virt. eigenvalues --    0.59097   0.63327   0.65796   0.68115   0.69127
 Alpha virt. eigenvalues --    0.72539   0.73094   0.73866   0.76951   0.83714
 Alpha virt. eigenvalues --    0.85630   0.87560   0.88221   0.89413   0.90615
 Alpha virt. eigenvalues --    0.90987   0.91188   0.93036   0.94135   0.95790
 Alpha virt. eigenvalues --    0.97335   0.98847   0.99083   0.99630   1.00856
 Alpha virt. eigenvalues --    1.04781   1.08166   1.21763   1.41187   1.42533
 Alpha virt. eigenvalues --    1.45468   1.51488   1.55961   1.62346   1.67446
 Alpha virt. eigenvalues --    1.71736   1.75329   1.80824   1.84563   1.86845
 Alpha virt. eigenvalues --    1.94947   1.96379   1.98551   2.01277   2.02450
 Alpha virt. eigenvalues --    2.07424   2.11202   2.16382   2.18352   2.24541
 Alpha virt. eigenvalues --    2.25756   2.27666   2.33588   2.36766   2.37916
 Alpha virt. eigenvalues --    2.44244   2.51356   2.52613   2.61145   2.68401
 Alpha virt. eigenvalues --    2.74352   2.77916   4.12207   4.20595   4.29165
 Alpha virt. eigenvalues --    4.36069   4.47563   4.59012
          Condensed to atoms (all electrons):
              1          2          3          4          5          6
     1  C    5.108801   0.369536   0.371611   0.368234   0.380960  -0.046121
     2  H    0.369536   0.581298  -0.031690  -0.030342  -0.029948  -0.003316
     3  H    0.371611  -0.031690   0.585147  -0.032070  -0.034174   0.005827
     4  H    0.368234  -0.030342  -0.032070   0.583606  -0.029128  -0.003221
     5  C    0.380960  -0.029948  -0.034174  -0.029128   4.839463   0.379933
     6  H   -0.046121  -0.003316   0.005827  -0.003221   0.379933   0.637360
     7  C   -0.047332  -0.004157  -0.006093   0.004768   0.393828  -0.047257
     8  H   -0.004886  -0.000282   0.005393  -0.000065  -0.039399   0.006523
     9  H   -0.004779   0.005309  -0.000307   0.000001  -0.039059  -0.003744
    10  C    0.004437   0.000017  -0.000030  -0.000153  -0.037942  -0.006473
    11  H    0.000041   0.000002   0.000000   0.000002  -0.008162  -0.000061
    12  H   -0.000142  -0.000003  -0.000004   0.000002   0.004719  -0.000014
    13  C    0.000083  -0.000006   0.000004   0.000003  -0.004278   0.004155
    14  H   -0.000043   0.000004   0.000000   0.000000  -0.000727   0.000241
    15  H   -0.000001   0.000000   0.000000   0.000000   0.000140  -0.000094
    16  H   -0.000067   0.000001   0.000000   0.000006   0.002568   0.002337
    17  C   -0.054462   0.005310  -0.005593  -0.003619   0.381116  -0.049116
    18  H    0.005119  -0.000185  -0.000043  -0.000044  -0.028455  -0.003728
    19  H   -0.005190  -0.000050   0.004872  -0.000215  -0.034915   0.005947
    20  H   -0.004504  -0.000015  -0.000227   0.004350  -0.030128  -0.002981
              7          8          9         10         11         12
     1  C   -0.047332  -0.004886  -0.004779   0.004437   0.000041  -0.000142
     2  H   -0.004157  -0.000282   0.005309   0.000017   0.000002  -0.000003
     3  H   -0.006093   0.005393  -0.000307  -0.000030   0.000000  -0.000004
     4  H    0.004768  -0.000065   0.000001  -0.000153   0.000002   0.000002
     5  C    0.393828  -0.039399  -0.039059  -0.037942  -0.008162   0.004719
     6  H   -0.047257   0.006523  -0.003744  -0.006473  -0.000061  -0.000014
     7  C    5.015445   0.363849   0.367119   0.380075  -0.037697  -0.033076
     8  H    0.363849   0.623909  -0.037818  -0.035344  -0.002982  -0.003674
     9  H    0.367119  -0.037818   0.623190  -0.039608   0.005880  -0.003824
    10  C    0.380075  -0.035344  -0.039608   4.964844   0.375605   0.373470
    11  H   -0.037697  -0.002982   0.005880   0.375605   0.608190  -0.038839
    12  H   -0.033076  -0.003674  -0.003824   0.373470  -0.038839   0.613768
    13  C   -0.046180   0.005187  -0.006199   0.376698  -0.040833  -0.040071
    14  H   -0.003710   0.000003   0.005358  -0.036187   0.005380  -0.004062
    15  H    0.004310  -0.000158  -0.000024  -0.028701  -0.002182  -0.003680
    16  H   -0.005014  -0.000042  -0.000176  -0.033976  -0.004891   0.005216
    17  C   -0.050510  -0.007948   0.005849  -0.003199   0.003803   0.000065
    18  H   -0.004937  -0.000112  -0.000049   0.001674   0.002809  -0.000046
    19  H   -0.005444   0.005609  -0.000018  -0.000514   0.000269  -0.000037
    20  H    0.004981  -0.000042  -0.000173   0.000087  -0.000119   0.000000
             13         14         15         16         17         18
     1  C    0.000083  -0.000043  -0.000001  -0.000067  -0.054462   0.005119
     2  H   -0.000006   0.000004   0.000000   0.000001   0.005310  -0.000185
     3  H    0.000004   0.000000   0.000000   0.000000  -0.005593  -0.000043
     4  H    0.000003   0.000000   0.000000   0.000006  -0.003619  -0.000044
     5  C   -0.004278  -0.000727   0.000140   0.002568   0.381116  -0.028455
     6  H    0.004155   0.000241  -0.000094   0.002337  -0.049116  -0.003728
     7  C   -0.046180  -0.003710   0.004310  -0.005014  -0.050510  -0.004937
     8  H    0.005187   0.000003  -0.000158  -0.000042  -0.007948  -0.000112
     9  H   -0.006199   0.005358  -0.000024  -0.000176   0.005849  -0.000049
    10  C    0.376698  -0.036187  -0.028701  -0.033976  -0.003199   0.001674
    11  H   -0.040833   0.005380  -0.002182  -0.004891   0.003803   0.002809
    12  H   -0.040071  -0.004062  -0.003680   0.005216   0.000065  -0.000046
    13  C    5.068209   0.376903   0.372897   0.378012  -0.001250   0.000388
    14  H    0.376903   0.580907  -0.031260  -0.033200   0.000079  -0.000013
    15  H    0.372897  -0.031260   0.578953  -0.031328  -0.000011  -0.000036
    16  H    0.378012  -0.033200  -0.031328   0.573511   0.000389   0.000679
    17  C   -0.001250   0.000079  -0.000011   0.000389   5.111950   0.370433
    18  H    0.000388  -0.000013  -0.000036   0.000679   0.370433   0.575210
    19  H    0.000074  -0.000001   0.000001  -0.000015   0.371397  -0.032015
    20  H   -0.000009   0.000001   0.000000  -0.000028   0.370424  -0.030596
             19         20
     1  C   -0.005190  -0.004504
     2  H   -0.000050  -0.000015
     3  H    0.004872  -0.000227
     4  H   -0.000215   0.004350
     5  C   -0.034915  -0.030128
     6  H    0.005947  -0.002981
     7  C   -0.005444   0.004981
     8  H    0.005609  -0.000042
     9  H   -0.000018  -0.000173
    10  C   -0.000514   0.000087
    11  H    0.000269  -0.000119
    12  H   -0.000037   0.000000
    13  C    0.000074  -0.000009
    14  H   -0.000001   0.000001
    15  H    0.000001   0.000000
    16  H   -0.000015  -0.000028
    17  C    0.371397   0.370424
    18  H   -0.032015  -0.030596
    19  H    0.584971  -0.031859
    20  H   -0.031859   0.582033
 Mulliken atomic charges:
              1
     1  C   -0.441294
     2  H    0.138515
     3  H    0.137378
     4  H    0.137885
     5  C   -0.066412
     6  H    0.123802
     7  C   -0.242967
     8  H    0.122279
     9  H    0.123071
    10  C   -0.254780
    11  H    0.133786
    12  H    0.130228
    13  C   -0.443787
    14  H    0.140329
    15  H    0.141175
    16  H    0.146018
    17  C   -0.445106
    18  H    0.143946
    19  H    0.137132
    20  H    0.138804
 Sum of Mulliken atomic charges =   0.00000
 Mulliken charges with hydrogens summed into heavy atoms:
              1
     1  C   -0.027517
     5  C    0.057389
     7  C    0.002383
    10  C    0.009234
    13  C   -0.016265
    17  C   -0.025224
 Sum of Mulliken charges with hydrogens summed into heavy atoms =   0.00000
 Electronic spatial extent (au):  <R**2>=            822.7610
 Charge=              0.0000 electrons
 Dipole moment (field-independent basis, Debye):
    X=             -0.0689    Y=              0.0077    Z=             -0.0193  Tot=              0.0720
 Quadrupole moment (field-independent basis, Debye-Ang):
   XX=            -41.8666   YY=            -41.5953   ZZ=            -41.3951
   XY=              0.1530   XZ=             -0.2173   YZ=             -0.0484
 Traceless Quadrupole moment (field-independent basis, Debye-Ang):
   XX=             -0.2476   YY=              0.0237   ZZ=              0.2239
   XY=              0.1530   XZ=             -0.2173   YZ=             -0.0484
 Octapole moment (field-independent basis, Debye-Ang**2):
  XXX=             -1.5996  YYY=             -1.4213  ZZZ=              0.6749  XYY=             -1.4881
  XXY=              1.2128  XXZ=              0.4326  XZZ=              1.3721  YZZ=              0.2763
  YYZ=             -0.8473  XYZ=             -0.2692
 Hexadecapole moment (field-independent basis, Debye-Ang**3):
 XXXX=           -742.8730 YYYY=           -241.6848 ZZZZ=           -156.1019 XXXY=              2.4441
 XXXZ=             -4.4758 YYYX=             -0.9552 YYYZ=              1.3563 ZZZX=             -0.3141
 ZZZY=             -0.8391 XXYY=           -165.0758 XXZZ=           -149.1653 YYZZ=            -66.5228
 XXYZ=             -2.0286 YYXZ=             -0.7985 ZZXY=              1.2740
 N-N= 2.562835723092D+02 E-N=-1.059488418980D+03  KE= 2.346252531770D+02
 No NMR shielding tensors so no spin-rotation constants.
 Leave Link  601 at Fri Sep 18 13:32:44 2015, MaxMem=  402653184 cpu:       0.3
 (Enter /share/apps/g09/l9999.exe)
 1\1\GINC-COMPUTE-0-11\FOpt\RB3LYP\6-31G(d)\C6H14\HETANJIN\18-Sep-2015\
 0\\#p B3LYP/6-31G(d) opt=tight int=ultrafine\\using B3LYP/6-31G(d) to 
 do opt and freq calc.\\0,1\C,2.0792175384,-1.0203142682,-0.0068627294\
 H,1.8231664876,-2.0865376031,0.0122222889\H,2.5322321559,-0.7701324516
 ,0.9616557313\H,2.8441837907,-0.8724858612,-0.7785656054\C,0.840709937
 2,-0.1513601612,-0.2741340929\H,0.4373008083,-0.4458930642,-1.25413292
 25\C,-0.2393966095,-0.4216682343,0.7939308619\H,0.1696529398,-0.142644
 6393,1.7768576523\H,-0.4199691341,-1.5061387385,0.8385529623\C,-1.5905
 949957,0.2890068568,0.6017479113\H,-1.4482766166,1.3775948355,0.620903
 72\H,-2.2236834349,0.0569999052,1.4689076401\C,-2.3388255053,-0.105898
 5107,-0.6771886054\H,-2.4966887358,-1.1909244873,-0.7231909917\H,-3.32
 27552388,0.3750824576,-0.7219922466\H,-1.7900746771,0.186016466,-1.579
 8591026\C,1.2303878041,1.3325573369,-0.3515392538\H,0.3808819344,1.969
 3822713,-0.6216259613\H,1.6178420906,1.6854055295,0.6136667125\H,2.014
 0264607,1.4933733607,-1.1015669693\\Version=EM64L-G09RevA.01\State=1-A
 \HF=-237.0834671\RMSD=3.255e-09\RMSF=4.572e-07\Dipole=-0.0270297,0.002
 3965,-0.0081301\Quadrupole=-0.1759144,0.001716,0.1741984,0.0732998,-0.
 186338,0.0235037\PG=C01 [X(C6H14)]\\@


 LOGIC IS A SYSTEMATIC METHOD OF COMING TO THE
 WRONG CONCLUSION WITH CONFIDENCE.
 Job cpu time:  0 days  0 hours 19 minutes 22.9 seconds.
 File lengths (MBytes):  RWF=     15 Int=      0 D2E=      0 Chk=      2 Scr=      1
 Normal termination of Gaussian 09 at Fri Sep 18 13:32:44 2015.
