using PM6 to do opt and freq calc.                                      
FOpt      RPM6                                                        ZDO                 
Number of atoms                            I               20
Info1-9                                    I   N=           9
          33          29           0           0           0         110
           2           8         302
Charge                                     I                0
Multiplicity                               I                1
Number of electrons                        I               38
Number of alpha electrons                  I               19
Number of beta electrons                   I               19
Number of basis functions                  I               38
Number of independent functions            I               38
Number of point charges in /Mol/           I                0
Number of translation vectors              I                0
Atomic numbers                             I   N=          20
           6           1           1           1           6           1
           1           6           1           6           1           1
           6           1           1           1           6           1
           1           1
Nuclear charges                            R   N=          20
  4.00000000E+00  1.00000000E+00  1.00000000E+00  1.00000000E+00  4.00000000E+00
  1.00000000E+00  1.00000000E+00  4.00000000E+00  1.00000000E+00  4.00000000E+00
  1.00000000E+00  1.00000000E+00  4.00000000E+00  1.00000000E+00  1.00000000E+00
  1.00000000E+00  4.00000000E+00  1.00000000E+00  1.00000000E+00  1.00000000E+00
Current cartesian coordinates              R   N=          60
  4.00609672E+00 -1.15616031E+00 -1.02096771E+00  4.15091260E+00  4.35169947E-01
 -2.33905845E+00  3.05363930E+00 -2.69968246E+00 -2.01903945E+00  5.93068041E+00
 -1.78691623E+00 -5.91935942E-01  2.59849190E+00 -4.10927479E-01  1.38402087E+00
  2.50198485E+00 -2.05967645E+00  2.67046761E+00  3.70566295E+00  1.04064861E+00
  2.40965695E+00 -1.02399404E-01  6.08813039E-01  9.41288269E-01 -9.29360749E-01
  1.00750804E+00  2.84890350E+00 -1.78097771E+00 -1.38411537E+00 -3.69438677E-01
 -1.37085043E+00 -3.27524884E+00  4.27796263E-01 -1.28419813E+00 -1.50475701E+00
 -2.39759290E+00 -4.59641981E+00 -8.17242399E-01 -8.66449057E-02 -5.09164496E+00
  1.01318040E+00 -9.19956793E-01 -5.74547033E+00 -2.25853389E+00 -1.02911723E+00
 -5.17006585E+00 -7.67269131E-01  1.90215065E+00 -5.85353438E-02  3.09672395E+00
 -5.43433912E-01  1.12011216E+00  4.51403443E+00  3.95168313E-01  6.92786291E-01
  2.83144410E+00 -2.45394844E+00 -1.96172619E+00  3.88754988E+00 -7.32437733E-01
Force Field                                I                0
Int Atom Types                             I   N=          20
           0           0           0           0           0           0
           0           0           0           0           0           0
           0           0           0           0           0           0
           0           0
MM charges                                 R   N=          20
  0.00000000E+00  0.00000000E+00  0.00000000E+00  0.00000000E+00  0.00000000E+00
  0.00000000E+00  0.00000000E+00  0.00000000E+00  0.00000000E+00  0.00000000E+00
  0.00000000E+00  0.00000000E+00  0.00000000E+00  0.00000000E+00  0.00000000E+00
  0.00000000E+00  0.00000000E+00  0.00000000E+00  0.00000000E+00  0.00000000E+00
Integer atomic weights                     I   N=          20
          12           1           1           1          12           1
           1          12           1          12           1           1
          12           1           1           1          12           1
           1           1
Real atomic weights                        R   N=          20
  1.20000000E+01  1.00782504E+00  1.00782504E+00  1.00782504E+00  1.20000000E+01
  1.00782504E+00  1.00782504E+00  1.20000000E+01  1.00782504E+00  1.20000000E+01
  1.00782504E+00  1.00782504E+00  1.20000000E+01  1.00782504E+00  1.00782504E+00
  1.00782504E+00  1.20000000E+01  1.00782504E+00  1.00782504E+00  1.00782504E+00
Atom fragment info                         I   N=          20
           0           0           0           0           0           0
           0           0           0           0           0           0
           0           0           0           0           0           0
           0           0
Atom residue num                           I   N=          20
           0           0           0           0           0           0
           0           0           0           0           0           0
           0           0           0           0           0           0
           0           0
Nuclear spins                              I   N=          20
           0           1           1           1           0           1
           1           0           1           0           1           1
           0           1           1           1           0           1
           1           1
Nuclear ZEff                               R   N=          20
 -3.90000000E+00 -1.00000000E+00 -1.00000000E+00 -1.00000000E+00 -3.90000000E+00
 -1.00000000E+00 -1.00000000E+00 -3.90000000E+00 -1.00000000E+00 -3.90000000E+00
 -1.00000000E+00 -1.00000000E+00 -3.90000000E+00 -1.00000000E+00 -1.00000000E+00
 -1.00000000E+00 -3.90000000E+00 -1.00000000E+00 -1.00000000E+00 -1.00000000E+00
Nuclear QMom                               R   N=          20
  0.00000000E+00  0.00000000E+00  0.00000000E+00  0.00000000E+00  0.00000000E+00
  0.00000000E+00  0.00000000E+00  0.00000000E+00  0.00000000E+00  0.00000000E+00
  0.00000000E+00  0.00000000E+00  0.00000000E+00  0.00000000E+00  0.00000000E+00
  0.00000000E+00  0.00000000E+00  0.00000000E+00  0.00000000E+00  0.00000000E+00
Nuclear GFac                               R   N=          20
  0.00000000E+00  2.79284600E+00  2.79284600E+00  2.79284600E+00  0.00000000E+00
  2.79284600E+00  2.79284600E+00  0.00000000E+00  2.79284600E+00  0.00000000E+00
  2.79284600E+00  2.79284600E+00  0.00000000E+00  2.79284600E+00  2.79284600E+00
  2.79284600E+00  0.00000000E+00  2.79284600E+00  2.79284600E+00  2.79284600E+00
MicOpt                                     I   N=          20
          -1          -1          -1          -1          -1          -1
          -1          -1          -1          -1          -1          -1
          -1          -1          -1          -1          -1          -1
          -1          -1
Number of contracted shells                I               20
Number of primitive shells                 I              120
Pure/Cartesian d shells                    I                0
Pure/Cartesian f shells                    I                0
Highest angular momentum                   I                1
Largest degree of contraction              I                6
Shell types                                I   N=          20
          -1           0           0           0          -1           0
           0          -1           0          -1           0           0
          -1           0           0           0          -1           0
           0           0
Number of primitives per shell             I   N=          20
           6           6           6           6           6           6
           6           6           6           6           6           6
           6           6           6           6           6           6
           6           6
Shell to atom map                          I   N=          20
           1           2           3           4           5           6
           7           8           9          10          11          12
          13          14          15          16          17          18
          19          20
Primitive exponents                        R   N=         120
  1.14476344E+01  3.29633588E+00  1.29653143E+00  5.92558930E-01  2.94896438E-01
  1.51447622E-01  4.39461478E+00  1.26542531E+00  4.97723458E-01  2.27476537E-01
  1.13207340E-01  5.81389949E-02  4.39461478E+00  1.26542531E+00  4.97723458E-01
  2.27476537E-01  1.13207340E-01  5.81389949E-02  4.39461478E+00  1.26542531E+00
  4.97723458E-01  2.27476537E-01  1.13207340E-01  5.81389949E-02  1.14476344E+01
  3.29633588E+00  1.29653143E+00  5.92558930E-01  2.94896438E-01  1.51447622E-01
  4.39461478E+00  1.26542531E+00  4.97723458E-01  2.27476537E-01  1.13207340E-01
  5.81389949E-02  4.39461478E+00  1.26542531E+00  4.97723458E-01  2.27476537E-01
  1.13207340E-01  5.81389949E-02  1.14476344E+01  3.29633588E+00  1.29653143E+00
  5.92558930E-01  2.94896438E-01  1.51447622E-01  4.39461478E+00  1.26542531E+00
  4.97723458E-01  2.27476537E-01  1.13207340E-01  5.81389949E-02  1.14476344E+01
  3.29633588E+00  1.29653143E+00  5.92558930E-01  2.94896438E-01  1.51447622E-01
  4.39461478E+00  1.26542531E+00  4.97723458E-01  2.27476537E-01  1.13207340E-01
  5.81389949E-02  4.39461478E+00  1.26542531E+00  4.97723458E-01  2.27476537E-01
  1.13207340E-01  5.81389949E-02  1.14476344E+01  3.29633588E+00  1.29653143E+00
  5.92558930E-01  2.94896438E-01  1.51447622E-01  4.39461478E+00  1.26542531E+00
  4.97723458E-01  2.27476537E-01  1.13207340E-01  5.81389949E-02  4.39461478E+00
  1.26542531E+00  4.97723458E-01  2.27476537E-01  1.13207340E-01  5.81389949E-02
  4.39461478E+00  1.26542531E+00  4.97723458E-01  2.27476537E-01  1.13207340E-01
  5.81389949E-02  1.14476344E+01  3.29633588E+00  1.29653143E+00  5.92558930E-01
  2.94896438E-01  1.51447622E-01  4.39461478E+00  1.26542531E+00  4.97723458E-01
  2.27476537E-01  1.13207340E-01  5.81389949E-02  4.39461478E+00  1.26542531E+00
  4.97723458E-01  2.27476537E-01  1.13207340E-01  5.81389949E-02  4.39461478E+00
  1.26542531E+00  4.97723458E-01  2.27476537E-01  1.13207340E-01  5.81389949E-02
Contraction coefficients                   R   N=         120
 -9.73739553E-03 -7.26587678E-02 -1.71615520E-01  1.28977624E-01  7.28861451E-01
  3.01331742E-01 -9.73739553E-03 -7.26587678E-02 -1.71615520E-01  1.28977624E-01
  7.28861451E-01  3.01331742E-01 -9.73739553E-03 -7.26587678E-02 -1.71615520E-01
  1.28977624E-01  7.28861451E-01  3.01331742E-01 -9.73739553E-03 -7.26587678E-02
 -1.71615520E-01  1.28977624E-01  7.28861451E-01  3.01331742E-01 -9.73739553E-03
 -7.26587678E-02 -1.71615520E-01  1.28977624E-01  7.28861451E-01  3.01331742E-01
 -9.73739553E-03 -7.26587678E-02 -1.71615520E-01  1.28977624E-01  7.28861451E-01
  3.01331742E-01 -9.73739553E-03 -7.26587678E-02 -1.71615520E-01  1.28977624E-01
  7.28861451E-01  3.01331742E-01 -9.73739553E-03 -7.26587678E-02 -1.71615520E-01
  1.28977624E-01  7.28861451E-01  3.01331742E-01 -9.73739553E-03 -7.26587678E-02
 -1.71615520E-01  1.28977624E-01  7.28861451E-01  3.01331742E-01 -9.73739553E-03
 -7.26587678E-02 -1.71615520E-01  1.28977624E-01  7.28861451E-01  3.01331742E-01
 -9.73739553E-03 -7.26587678E-02 -1.71615520E-01  1.28977624E-01  7.28861451E-01
  3.01331742E-01 -9.73739553E-03 -7.26587678E-02 -1.71615520E-01  1.28977624E-01
  7.28861451E-01  3.01331742E-01 -9.73739553E-03 -7.26587678E-02 -1.71615520E-01
  1.28977624E-01  7.28861451E-01  3.01331742E-01 -9.73739553E-03 -7.26587678E-02
 -1.71615520E-01  1.28977624E-01  7.28861451E-01  3.01331742E-01 -9.73739553E-03
 -7.26587678E-02 -1.71615520E-01  1.28977624E-01  7.28861451E-01  3.01331742E-01
 -9.73739553E-03 -7.26587678E-02 -1.71615520E-01  1.28977624E-01  7.28861451E-01
  3.01331742E-01 -9.73739553E-03 -7.26587678E-02 -1.71615520E-01  1.28977624E-01
  7.28861451E-01  3.01331742E-01 -9.73739553E-03 -7.26587678E-02 -1.71615520E-01
  1.28977624E-01  7.28861451E-01  3.01331742E-01 -9.73739553E-03 -7.26587678E-02
 -1.71615520E-01  1.28977624E-01  7.28861451E-01  3.01331742E-01 -9.73739553E-03
 -7.26587678E-02 -1.71615520E-01  1.28977624E-01  7.28861451E-01  3.01331742E-01
P(S=P) Contraction coefficients            R   N=         120
 -8.10494336E-03 -1.71547892E-02  7.36978576E-02  3.96514999E-01  4.97808488E-01
  1.17482582E-01  0.00000000E+00  0.00000000E+00  0.00000000E+00  0.00000000E+00
  0.00000000E+00  0.00000000E+00  0.00000000E+00  0.00000000E+00  0.00000000E+00
  0.00000000E+00  0.00000000E+00  0.00000000E+00  0.00000000E+00  0.00000000E+00
  0.00000000E+00  0.00000000E+00  0.00000000E+00  0.00000000E+00 -8.10494336E-03
 -1.71547892E-02  7.36978576E-02  3.96514999E-01  4.97808488E-01  1.17482582E-01
  0.00000000E+00  0.00000000E+00  0.00000000E+00  0.00000000E+00  0.00000000E+00
  0.00000000E+00  0.00000000E+00  0.00000000E+00  0.00000000E+00  0.00000000E+00
  0.00000000E+00  0.00000000E+00 -8.10494336E-03 -1.71547892E-02  7.36978576E-02
  3.96514999E-01  4.97808488E-01  1.17482582E-01  0.00000000E+00  0.00000000E+00
  0.00000000E+00  0.00000000E+00  0.00000000E+00  0.00000000E+00 -8.10494336E-03
 -1.71547892E-02  7.36978576E-02  3.96514999E-01  4.97808488E-01  1.17482582E-01
  0.00000000E+00  0.00000000E+00  0.00000000E+00  0.00000000E+00  0.00000000E+00
  0.00000000E+00  0.00000000E+00  0.00000000E+00  0.00000000E+00  0.00000000E+00
  0.00000000E+00  0.00000000E+00 -8.10494336E-03 -1.71547892E-02  7.36978576E-02
  3.96514999E-01  4.97808488E-01  1.17482582E-01  0.00000000E+00  0.00000000E+00
  0.00000000E+00  0.00000000E+00  0.00000000E+00  0.00000000E+00  0.00000000E+00
  0.00000000E+00  0.00000000E+00  0.00000000E+00  0.00000000E+00  0.00000000E+00
  0.00000000E+00  0.00000000E+00  0.00000000E+00  0.00000000E+00  0.00000000E+00
  0.00000000E+00 -8.10494336E-03 -1.71547892E-02  7.36978576E-02  3.96514999E-01
  4.97808488E-01  1.17482582E-01  0.00000000E+00  0.00000000E+00  0.00000000E+00
  0.00000000E+00  0.00000000E+00  0.00000000E+00  0.00000000E+00  0.00000000E+00
  0.00000000E+00  0.00000000E+00  0.00000000E+00  0.00000000E+00  0.00000000E+00
  0.00000000E+00  0.00000000E+00  0.00000000E+00  0.00000000E+00  0.00000000E+00
Coordinates of each shell                  R   N=          60
  4.00609672E+00 -1.15616031E+00 -1.02096771E+00  4.15091260E+00  4.35169947E-01
 -2.33905845E+00  3.05363930E+00 -2.69968246E+00 -2.01903945E+00  5.93068041E+00
 -1.78691623E+00 -5.91935942E-01  2.59849190E+00 -4.10927479E-01  1.38402087E+00
  2.50198485E+00 -2.05967645E+00  2.67046761E+00  3.70566295E+00  1.04064861E+00
  2.40965695E+00 -1.02399404E-01  6.08813039E-01  9.41288269E-01 -9.29360749E-01
  1.00750804E+00  2.84890350E+00 -1.78097771E+00 -1.38411537E+00 -3.69438677E-01
 -1.37085043E+00 -3.27524884E+00  4.27796263E-01 -1.28419813E+00 -1.50475701E+00
 -2.39759290E+00 -4.59641981E+00 -8.17242399E-01 -8.66449057E-02 -5.09164496E+00
  1.01318040E+00 -9.19956793E-01 -5.74547033E+00 -2.25853389E+00 -1.02911723E+00
 -5.17006585E+00 -7.67269131E-01  1.90215065E+00 -5.85353438E-02  3.09672395E+00
 -5.43433912E-01  1.12011216E+00  4.51403443E+00  3.95168313E-01  6.92786291E-01
  2.83144410E+00 -2.45394844E+00 -1.96172619E+00  3.88754988E+00 -7.32437733E-01
Constraint Structure                       R   N=          60
  4.08780675E+00 -1.15568097E+00 -1.03474935E+00  4.27400951E+00  4.66979572E-01
 -2.35894313E+00  3.12443942E+00 -2.74745876E+00 -2.01501770E+00  6.01965934E+00
 -1.79010124E+00 -4.92405651E-01  2.63339308E+00 -3.84962468E-01  1.34385356E+00
  2.55443421E+00 -2.05489191E+00  2.62662050E+00  3.74981249E+00  1.09791337E+00
  2.34138515E+00 -8.53641615E-02  6.02327323E-01  9.15425175E-01 -8.44194891E-01
  1.00962122E+00  2.84071596E+00 -1.81841426E+00 -1.41460006E+00 -2.98721083E-01
 -1.51149351E+00 -3.26002112E+00  6.71006425E-01 -1.32049882E+00 -1.66529522E+00
 -2.32985882E+00 -4.64076517E+00 -8.20043248E-01 -1.17942413E-01 -5.11916768E+00
  8.93873740E-01 -1.23797088E+00 -5.74631337E+00 -2.43739749E+00 -8.86955111E-01
 -5.20153212E+00 -5.18964293E-01  1.88795565E+00 -1.11719661E-01  3.12183668E+00
 -5.35248529E-01  1.25807369E+00  4.47444561E+00  3.16061424E-01  3.90672798E-01
  2.83214704E+00 -2.55771117E+00 -2.01752059E+00  4.00588590E+00 -4.40586823E-01
Num ILSW                                   I              100
ILSW                                       I   N=         100
           0           0           0           0           2           0
           0           0           0           0           0          -1
           0           0           0           0           0           0
           0           0           0           0           1           0
           1           0           0           0           0           0
           0           0      100000           0          -1           0
           0           0           0           0           0           0
           0           0           0          40           0           0
           0           0           1           0           0           0
           0           0           4          40           0           0
           0           0           0           0           0           0
           0           0           0           0           0           0
           0           0           0           0           0           0
           0           0           0           0           0           0
           0           0           0           0           0           0
           0           0           0           0           0           0
           0           0           0           0
Num RLSW                                   I               40
RLSW                                       R   N=          40
  1.00000000E+00  1.00000000E+00  1.00000000E+00  1.00000000E+00  1.00000000E+00
  0.00000000E+00  0.00000000E+00  1.00000000E+00  0.00000000E+00  0.00000000E+00
  0.00000000E+00  0.00000000E+00  1.00000000E+00  0.00000000E+00  0.00000000E+00
  0.00000000E+00  0.00000000E+00  1.00000000E+00  0.00000000E+00  0.00000000E+00
  0.00000000E+00  0.00000000E+00  1.00000000E+00  0.00000000E+00  0.00000000E+00
  0.00000000E+00  0.00000000E+00  1.00000000E+00  0.00000000E+00  0.00000000E+00
  0.00000000E+00  0.00000000E+00  0.00000000E+00  0.00000000E+00  0.00000000E+00
  0.00000000E+00  0.00000000E+00  0.00000000E+00  1.00000000E+00  1.00000000E+00
MxBond                                     I                4
NBond                                      I   N=          20
           4           1           1           1           4           1
           1           4           1           4           1           1
           4           1           1           1           4           1
           1           1
IBond                                      I   N=          80
           2           3           4           5           1           0
           0           0           1           0           0           0
           1           0           0           0           1           6
           7           8           5           0           0           0
           5           0           0           0           5           9
          10          17           8           0           0           0
           8          11          12          13          10           0
           0           0          10           0           0           0
          10          14          15          16          13           0
           0           0          13           0           0           0
          13           0           0           0           8          18
          19          20          17           0           0           0
          17           0           0           0          17           0
           0           0
RBond                                      R   N=          80
  1.00000000E+00  1.00000000E+00  1.00000000E+00  1.00000000E+00  1.00000000E+00
  0.00000000E+00  0.00000000E+00  0.00000000E+00  1.00000000E+00  0.00000000E+00
  0.00000000E+00  0.00000000E+00  1.00000000E+00  0.00000000E+00  0.00000000E+00
  0.00000000E+00  1.00000000E+00  1.00000000E+00  1.00000000E+00  1.00000000E+00
  1.00000000E+00  0.00000000E+00  0.00000000E+00  0.00000000E+00  1.00000000E+00
  0.00000000E+00  0.00000000E+00  0.00000000E+00  1.00000000E+00  1.00000000E+00
  1.00000000E+00  1.00000000E+00  1.00000000E+00  0.00000000E+00  0.00000000E+00
  0.00000000E+00  1.00000000E+00  1.00000000E+00  1.00000000E+00  1.00000000E+00
  1.00000000E+00  0.00000000E+00  0.00000000E+00  0.00000000E+00  1.00000000E+00
  0.00000000E+00  0.00000000E+00  0.00000000E+00  1.00000000E+00  1.00000000E+00
  1.00000000E+00  1.00000000E+00  1.00000000E+00  0.00000000E+00  0.00000000E+00
  0.00000000E+00  1.00000000E+00  0.00000000E+00  0.00000000E+00  0.00000000E+00
  1.00000000E+00  0.00000000E+00  0.00000000E+00  0.00000000E+00  1.00000000E+00
  1.00000000E+00  1.00000000E+00  1.00000000E+00  1.00000000E+00  0.00000000E+00
  0.00000000E+00  0.00000000E+00  1.00000000E+00  0.00000000E+00  0.00000000E+00
  0.00000000E+00  1.00000000E+00  0.00000000E+00  0.00000000E+00  0.00000000E+00
Virial Ratio                               R      9.990083471316172E-01
SCF Energy                                 R     -5.577698908550133E-02
Total Energy                               R     -5.577698908550133E-02
RMS Force                                  R      2.927555986578280E-06
RMS Density                                R      7.036334849458119E-09
External E-field                           R   N=          35
  0.00000000E+00  0.00000000E+00  0.00000000E+00  0.00000000E+00  0.00000000E+00
  0.00000000E+00  0.00000000E+00  0.00000000E+00  0.00000000E+00  0.00000000E+00
  0.00000000E+00  0.00000000E+00  0.00000000E+00  0.00000000E+00  0.00000000E+00
  0.00000000E+00  0.00000000E+00  0.00000000E+00  0.00000000E+00  0.00000000E+00
  0.00000000E+00  0.00000000E+00  0.00000000E+00  0.00000000E+00  0.00000000E+00
  0.00000000E+00  0.00000000E+00  0.00000000E+00  0.00000000E+00  0.00000000E+00
  0.00000000E+00  0.00000000E+00  0.00000000E+00  0.00000000E+00  0.00000000E+00
IOpCl                                      I                0
IROHF                                      I                0
Alpha Orbital Energies                     R   N=          38
 -1.06466336E+00 -9.72265350E-01 -9.15884826E-01 -8.34755168E-01 -7.81050604E-01
 -6.83250713E-01 -5.80669538E-01 -5.61599776E-01 -5.55010331E-01 -5.25724029E-01
 -4.87636490E-01 -4.83224755E-01 -4.77380019E-01 -4.65591171E-01 -4.54043338E-01
 -4.25332320E-01 -4.08093997E-01 -4.06866150E-01 -4.01841166E-01  1.54552384E-01
  1.62183843E-01  1.65397814E-01  1.77475535E-01  1.84842024E-01  2.12230342E-01
  2.13950499E-01  2.19561691E-01  2.21346915E-01  2.25489647E-01  2.26820887E-01
  2.31054074E-01  2.33439743E-01  2.36061636E-01  2.43572497E-01  2.48873941E-01
  2.56189288E-01  2.58747797E-01  2.64829676E-01
Alpha MO coefficients                      R   N=        1444
  2.55134930E-01 -5.82867859E-02  2.59633667E-02  5.31688850E-02  1.16193779E-01
  1.16274645E-01  9.51023543E-02  3.69544071E-01 -7.00281962E-02  2.00233471E-02
 -5.33708057E-02  1.51243751E-01  1.48878575E-01  4.66006771E-01  1.81083884E-02
 -2.45751603E-02 -4.57663583E-02  1.88966743E-01  3.73818354E-01  3.29702025E-02
  6.95737590E-02  3.84337902E-02  1.56455331E-01  1.61517089E-01  2.35547066E-01
  8.14475326E-02  1.38887694E-03 -2.26517211E-04  1.06164625E-01  8.85576678E-02
  1.01346494E-01  3.08656047E-01  2.31091087E-03 -9.43667620E-02  4.09479765E-02
  1.25135898E-01  1.37981780E-01  1.28540113E-01 -4.05122765E-01  2.14234429E-02
 -2.16169134E-02 -6.40577649E-02 -1.73682134E-01 -1.63485803E-01 -1.80812771E-01
 -3.67279761E-01 -7.45501093E-02  1.44552740E-02  6.15211745E-02 -1.50017025E-01
 -1.67041231E-01  4.47098143E-03 -1.78929208E-01 -1.96095540E-02 -3.81390204E-02
  2.21982342E-02  3.44460601E-01 -1.41986794E-01  1.75450960E-02  3.93337700E-03
  1.30781263E-01  1.32358385E-01  4.58427624E-01  6.45300771E-02 -1.32761394E-02
 -7.84877959E-03  1.99611612E-01  1.99926872E-01  1.98082498E-01  2.79042277E-03
 -5.43348431E-02 -4.06713108E-03 -6.61992018E-03 -1.97176209E-02 -1.06332190E-02
  3.38624112E-02 -3.39782087E-01 -1.04025280E-02  2.54946417E-02 -2.26273074E-02
 -1.28201034E-01 -1.60257487E-01 -1.67884154E-01 -1.36571250E-01 -1.14222876E-01
  1.02330434E-01  5.37469494E-02 -8.61464171E-02 -3.89075280E-02  2.37459850E-01
 -4.76258959E-03  1.99431145E-01 -3.73247127E-02  1.06544857E-01 -1.68272551E-01
  1.00073954E-01  8.29512659E-02  1.26000877E-02 -1.06340623E-01 -7.29224698E-02
 -2.90144887E-01 -7.60834466E-03  3.91341474E-02  6.76273301E-03 -1.06193037E-01
 -1.47356172E-01 -1.27096243E-01  5.32389354E-01 -3.28457011E-03 -4.52982698E-03
  3.05045419E-02  2.48744918E-01  2.22700843E-01  2.39215321E-01  3.51961295E-01
  8.20541204E-02 -1.12370940E-02 -1.02325010E-01  2.02496881E-01  1.67159810E-01
  1.93006189E-01 -2.35278341E-01  1.77816285E-01 -1.91867071E-02 -1.38956104E-01
 -1.50875564E-01 -9.54985218E-02 -2.92970859E-01 -4.08183856E-02  1.90936553E-01
 -1.14377008E-01 -1.55679501E-01 -1.79766447E-01 -1.57993502E-01  7.45548808E-03
 -7.66792296E-02 -1.19630617E-01 -5.12754496E-02  2.44753467E-01 -9.41132564E-02
  2.33091647E-02 -1.80857468E-02  1.46242492E-01  1.35835645E-01  1.14377732E-01
  3.47273814E-01 -7.70022084E-03  1.16110477E-01 -8.20525259E-02  1.78624240E-01
  1.97075401E-01  1.96119157E-01  1.89097794E-01  2.92714369E-02 -5.61924897E-02
 -1.56807191E-01  1.20761978E-01  1.56931084E-01  9.32301727E-02 -3.38337708E-01
 -2.59419778E-02 -6.43516973E-02 -1.60232930E-01 -1.76925168E-01 -2.32187677E-01
  1.42965075E-02 -1.69816584E-01 -9.91310941E-02 -1.62826476E-01 -5.70195111E-02
  3.94324193E-01  1.63143867E-01 -4.83253674E-02 -6.22252224E-02  2.05564452E-01
  2.41536724E-01 -3.41748654E-01  2.16149642E-01 -4.60318794E-02 -3.61748790E-02
 -2.00013171E-01 -1.97701416E-01 -2.12350346E-01  1.25888613E-03 -3.40405214E-02
 -3.85251174E-02 -5.65953132E-02 -4.28551038E-02  3.43557399E-02  5.36869930E-03
  1.63806333E-01  7.29364853E-02 -3.55680080E-02 -1.96364654E-01  1.30792567E-01
  1.20362063E-01  1.00802241E-01 -2.50250560E-01 -1.65936721E-01  6.89893418E-02
 -1.07212517E-01 -1.87908687E-01 -1.74704195E-01  3.94926681E-01 -1.36259577E-01
  7.47075750E-02  1.44539648E-01  3.04692512E-01 -2.05111219E-01  3.48694590E-02
  2.31488946E-01  1.89639670E-01 -1.78910287E-01 -2.09614652E-01  5.56042003E-02
 -8.40821664E-02  1.13606374E-01  1.01498779E-01  7.11977436E-02 -2.16056244E-02
  1.05711695E-01 -1.60860085E-01 -5.79644020E-02 -2.00828110E-01  1.86048015E-01
 -1.31486379E-01 -1.74189309E-01 -9.74770526E-02  3.41460610E-02  2.18380248E-01
 -2.30144821E-01  7.06305306E-02 -1.28061464E-01  3.75108810E-02  2.09282058E-01
 -4.08294992E-02  1.30171017E-01 -2.29534887E-01  2.49358807E-01  2.07488524E-01
  4.53984400E-03 -8.29757871E-02 -2.74279066E-01 -1.48612792E-02  2.76752583E-01
  2.08100963E-01  5.05768726E-02 -1.05902750E-01 -1.07102989E-01  2.68962569E-01
  1.51959038E-01 -1.67610034E-01 -4.48842197E-02  1.50599513E-01 -5.02235597E-02
  1.94078014E-01 -1.18135192E-01 -1.13898553E-01  7.78999064E-02  6.10906024E-02
 -1.97091518E-01  2.93218567E-01  8.54325789E-02  1.14489929E-01 -1.05106471E-01
  2.14805655E-01 -1.49244753E-02 -3.56622011E-02 -1.61525475E-01  1.86980606E-01
 -1.74560051E-01  2.28424416E-02  3.03655220E-02  6.60583454E-02  1.01456571E-01
 -2.64636985E-01  2.01845738E-02  1.75283046E-01 -5.68629527E-02 -4.40534937E-03
 -1.92157397E-01 -7.02059758E-02 -1.99995714E-01 -8.49657834E-02 -1.86155968E-02
  6.93326132E-02  3.73625996E-01 -1.21924826E-01 -2.56844752E-01  6.92828780E-02
 -5.64560851E-03  4.69643792E-02  3.71299843E-01 -1.25375169E-01  2.54824611E-01
 -1.58150878E-01 -8.91666741E-02 -1.06647272E-02 -3.06057525E-01 -1.22828484E-01
 -1.46519959E-01 -2.27599331E-01  1.48268955E-02  1.75866450E-01  7.29402020E-03
  3.30508781E-01  2.55342109E-01  7.74710791E-02  1.12831264E-01 -2.54435760E-01
  1.72974613E-01 -1.10986669E-02  3.18517979E-01  3.26724348E-01  1.16311077E-01
 -1.47984048E-01  3.08562768E-01 -5.50777344E-03 -1.31568877E-01  2.29900020E-01
  3.00945893E-02  7.99740230E-02  1.05457480E-01 -1.98024894E-01  1.02226118E-01
 -1.61571948E-01 -9.30657315E-02  1.11377649E-01 -2.59771397E-02  2.43106249E-01
  4.08677418E-02 -1.63173083E-01  1.73030459E-02 -7.40896823E-02 -1.63131539E-01
 -4.82866955E-02 -6.52570939E-02 -9.02427410E-02  1.79463085E-01 -2.74303799E-02
 -1.39011580E-01 -1.46313634E-02 -6.34132096E-03  1.80477095E-02  3.24371965E-01
  9.91981561E-02  1.36542323E-01 -2.18331179E-01 -4.71668263E-02  3.56789234E-02
  1.37521547E-01  8.71245913E-02 -1.24892621E-01 -8.93362128E-02  6.62008234E-02
 -4.32465646E-02 -8.62476261E-02 -1.67640501E-01 -1.66489691E-01 -1.19663046E-01
  4.52957482E-02  1.54050668E-02  9.39825873E-02  3.27974311E-01  4.65905920E-02
 -2.03590244E-01  7.97174334E-03  1.23575070E-01  1.00698020E-01  4.52960063E-01
 -8.21496198E-02 -2.41049954E-01  2.84584959E-01 -8.73110456E-04  1.64447526E-02
 -7.36938311E-02 -2.88195160E-01 -1.19037475E-01  1.97337941E-01 -1.35308964E-02
 -2.81475260E-03 -1.86235795E-01  1.87871929E-01 -3.64171523E-01  2.62115289E-01
  8.82707333E-02 -2.29470317E-01  2.40164614E-02 -1.22380827E-01  8.16018865E-02
  1.25354075E-01  2.68181540E-02  5.74170509E-02 -1.05804178E-01  3.74172063E-02
 -1.84249067E-01  2.30402421E-01  6.81511014E-02  3.90828344E-02 -5.97547121E-02
  2.71021703E-02 -1.38266292E-02 -9.69614642E-03  2.45271507E-02  6.90815954E-03
  1.61719376E-01  4.14927952E-01 -7.64391411E-02  2.67667003E-01 -2.52033000E-01
 -7.33105510E-02 -5.92404024E-02  3.59582698E-02  3.64249026E-01 -1.13527152E-02
  1.66402579E-01 -3.20233819E-02  6.50480193E-02  5.05129397E-02 -4.03059397E-01
 -2.01872891E-02  2.59544658E-01 -1.42668221E-01  7.96386123E-02 -2.09905067E-01
  5.56922739E-02  1.59240499E-01 -3.61073420E-02 -3.79382725E-01 -1.32517184E-01
 -6.08868975E-02 -4.21990600E-02 -4.94536025E-03  1.59693663E-01 -1.05334374E-01
 -6.85643991E-02  3.48514108E-02 -1.43095315E-01  2.25085567E-02  4.32886740E-03
 -1.80304831E-02 -1.61519605E-02  1.58837289E-02  1.89392962E-01  4.40912282E-02
  1.48688636E-01 -4.08176216E-02 -1.43566631E-01  7.51348489E-02  1.01515772E-02
 -1.75083726E-02  8.62113603E-02  4.50756823E-01  1.91044369E-01 -3.15977921E-01