 Entering Gaussian System, Link 0=/share/apps/g09/g09
 Input=C6H14_3_02_1_opt_PM6.gjf
 Output=C6H14_3_02_1_opt_PM6.log
 Initial command:
 /share/apps/g09/l1.exe /state/partition1/Gau-19935.inp -scrdir=/state/partition1/
 Entering Link 1 = /share/apps/g09/l1.exe PID=     19941.
  
 Copyright (c) 1988,1990,1992,1993,1995,1998,2003,2009, Gaussian, Inc.
                  All Rights Reserved.
  
 This is part of the Gaussian(R) 09 program.  It is based on
 the Gaussian(R) 03 system (copyright 2003, Gaussian, Inc.),
 the Gaussian(R) 98 system (copyright 1998, Gaussian, Inc.),
 the Gaussian(R) 94 system (copyright 1995, Gaussian, Inc.),
 the Gaussian 92(TM) system (copyright 1992, Gaussian, Inc.),
 the Gaussian 90(TM) system (copyright 1990, Gaussian, Inc.),
 the Gaussian 88(TM) system (copyright 1988, Gaussian, Inc.),
 the Gaussian 86(TM) system (copyright 1986, Carnegie Mellon
 University), and the Gaussian 82(TM) system (copyright 1983,
 Carnegie Mellon University). Gaussian is a federally registered
 trademark of Gaussian, Inc.
  
 This software contains proprietary and confidential information,
 including trade secrets, belonging to Gaussian, Inc.
  
 This software is provided under written license and may be
 used, copied, transmitted, or stored only in accord with that
 written license.
  
 The following legend is applicable only to US Government
 contracts under FAR:
  
                    RESTRICTED RIGHTS LEGEND
  
 Use, reproduction and disclosure by the US Government is
 subject to restrictions as set forth in subparagraphs (a)
 and (c) of the Commercial Computer Software - Restricted
 Rights clause in FAR 52.227-19.
  
 Gaussian, Inc.
 340 Quinnipiac St., Bldg. 40, Wallingford CT 06492
  
  
 ---------------------------------------------------------------
 Warning -- This program may not be used in any manner that
 competes with the business of Gaussian, Inc. or will provide
 assistance to any competitor of Gaussian, Inc.  The licensee
 of this program is prohibited from giving any competitor of
 Gaussian, Inc. access to this program.  By using this program,
 the user acknowledges that Gaussian, Inc. is engaged in the
 business of creating and licensing software in the field of
 computational chemistry and represents and warrants to the
 licensee that it is not a competitor of Gaussian, Inc. and that
 it will not use this program in any manner prohibited above.
 ---------------------------------------------------------------
  

 Cite this work as:
 Gaussian 09, Revision A.01,
 M. J. Frisch, G. W. Trucks, H. B. Schlegel, G. E. Scuseria, 
 M. A. Robb, J. R. Cheeseman, G. Scalmani, V. Barone, B. Mennucci, 
 G. A. Petersson, H. Nakatsuji, M. Caricato, X. Li, H. P. Hratchian, 
 A. F. Izmaylov, J. Bloino, G. Zheng, J. L. Sonnenberg, M. Hada, 
 M. Ehara, K. Toyota, R. Fukuda, J. Hasegawa, M. Ishida, T. Nakajima, 
 Y. Honda, O. Kitao, H. Nakai, T. Vreven, J. A. Montgomery, Jr., 
 J. E. Peralta, F. Ogliaro, M. Bearpark, J. J. Heyd, E. Brothers, 
 K. N. Kudin, V. N. Staroverov, R. Kobayashi, J. Normand, 
 K. Raghavachari, A. Rendell, J. C. Burant, S. S. Iyengar, J. Tomasi, 
 M. Cossi, N. Rega, J. M. Millam, M. Klene, J. E. Knox, J. B. Cross, 
 V. Bakken, C. Adamo, J. Jaramillo, R. Gomperts, R. E. Stratmann, 
 O. Yazyev, A. J. Austin, R. Cammi, C. Pomelli, J. W. Ochterski, 
 R. L. Martin, K. Morokuma, V. G. Zakrzewski, G. A. Voth, 
 P. Salvador, J. J. Dannenberg, S. Dapprich, A. D. Daniels, 
 O. Farkas, J. B. Foresman, J. V. Ortiz, J. Cioslowski, 
 and D. J. Fox, Gaussian, Inc., Wallingford CT, 2009.
 
 ******************************************
 Gaussian 09:  EM64L-G09RevA.01  8-May-2009
                14-Sep-2015 
 ******************************************
 %mem=3GB
 %nprocshared=2
 Will use up to    2 processors via shared memory.
 %chk=C6H14_3_02_1_opt_PM6.chk
 ----------
 #p PM6 opt
 ----------
 1/14=-1,18=20,19=15,26=1,38=1/1,3;
 2/9=110,12=2,17=6,18=5,40=1/2;
 3/5=2,16=1,25=1,41=3900000,71=1/1,2,3;
 4/35=1/1;
 5/5=2,35=1,38=5/2;
 6/7=2,8=2,9=2,10=2,28=1/1;
 7//1,2,3,16;
 1/14=-1,18=20,19=15/3(2);
 2/9=110/2;
 99//99;
 2/9=110/2;
 3/5=2,16=1,25=1,41=3900000,71=1,135=20/1,2,3;
 4/5=5,16=3,35=1/1;
 5/5=2,35=1,38=5/2;
 7//1,2,3,16;
 1/14=-1,18=20,19=15/3(-5);
 2/9=110/2;
 6/7=2,8=2,9=2,10=2,19=2,28=1/1;
 99/9=1/99;
 Leave Link    1 at Mon Sep 14 19:12:18 2015, MaxMem=  402653184 cpu:       0.8
 (Enter /share/apps/g09/l101.exe)
 ----------------------------------
 using PM6 to do opt and freq calc.
 ----------------------------------
 Symbolic Z-matrix:
 Charge =  0 Multiplicity = 1
 C                    -2.5191   -0.6561   -0.4647 
 H                    -2.2703   -1.3364   -1.3093 
 H                    -2.8709    0.3194   -0.8686 
 H                    -3.3516   -1.1122    0.1176 
 C                    -1.3096   -0.4594    0.4526 
 H                    -1.6211    0.2011    1.2953 
 H                    -1.048    -1.448     0.8972 
 C                    -0.048     0.1419   -0.2115 
 H                     0.7036    0.2344    0.6084 
 C                    -0.2999    1.5621   -0.7706 
 H                    -0.8673    2.1554   -0.016 
 H                    -0.9208    1.5041   -1.6944 
 C                     0.9732    2.3457   -1.093 
 H                     1.5334    1.8669   -1.9266 
 H                     0.7019    3.3798   -1.4051 
 H                     1.6299    2.4071   -0.1957 
 C                     0.5598   -0.808    -1.2581 
 H                     0.6586   -1.8356   -0.8398 
 H                    -0.0744   -0.8526   -2.1721 
 H                     1.5775   -0.4656   -1.5505 
 
 NAtoms=     20 NQM=     20 NQMF=      0 NMic=      0 NMicF=      0 NTot=     20.
                    Isotopes and Nuclear Properties:
 (Nuclear quadrupole moments (NQMom) in fm**2, nuclear magnetic moments (NMagM)
  in nuclear magnetons)

  Atom         1           2           3           4           5           6           7           8           9          10
 IAtWgt=          12           1           1           1          12           1           1          12           1          12
 AtmWgt=  12.0000000   1.0078250   1.0078250   1.0078250  12.0000000   1.0078250   1.0078250  12.0000000   1.0078250  12.0000000
 NucSpn=           0           1           1           1           0           1           1           0           1           0
 AtZEff=   0.0000000   0.0000000   0.0000000   0.0000000   0.0000000   0.0000000   0.0000000   0.0000000   0.0000000   0.0000000
 NQMom=    0.0000000   0.0000000   0.0000000   0.0000000   0.0000000   0.0000000   0.0000000   0.0000000   0.0000000   0.0000000
 NMagM=    0.0000000   2.7928460   2.7928460   2.7928460   0.0000000   2.7928460   2.7928460   0.0000000   2.7928460   0.0000000

  Atom        11          12          13          14          15          16          17          18          19          20
 IAtWgt=           1           1          12           1           1           1          12           1           1           1
 AtmWgt=   1.0078250   1.0078250  12.0000000   1.0078250   1.0078250   1.0078250  12.0000000   1.0078250   1.0078250   1.0078250
 NucSpn=           1           1           0           1           1           1           0           1           1           1
 AtZEff=   0.0000000   0.0000000   0.0000000   0.0000000   0.0000000   0.0000000   0.0000000   0.0000000   0.0000000   0.0000000
 NQMom=    0.0000000   0.0000000   0.0000000   0.0000000   0.0000000   0.0000000   0.0000000   0.0000000   0.0000000   0.0000000
 NMagM=    2.7928460   2.7928460   0.0000000   2.7928460   2.7928460   2.7928460   0.0000000   2.7928460   2.7928460   2.7928460
 Leave Link  101 at Mon Sep 14 19:12:20 2015, MaxMem=  402653184 cpu:       0.1
 (Enter /share/apps/g09/l103.exe)

 GradGradGradGradGradGradGradGradGradGradGradGradGradGradGradGradGradGrad
 Berny optimization.
 Initialization pass.
                           ----------------------------
                           !    Initial Parameters    !
                           ! (Angstroms and Degrees)  !
 --------------------------                            --------------------------
 ! Name  Definition              Value          Derivative Info.                !
 --------------------------------------------------------------------------------
 ! R1    R(1,2)                  1.1127         estimate D2E/DX2                !
 ! R2    R(1,3)                  1.1129         estimate D2E/DX2                !
 ! R3    R(1,4)                  1.1136         estimate D2E/DX2                !
 ! R4    R(1,5)                  1.5307         estimate D2E/DX2                !
 ! R5    R(5,6)                  1.1151         estimate D2E/DX2                !
 ! R6    R(5,7)                  1.1151         estimate D2E/DX2                !
 ! R7    R(5,8)                  1.5473         estimate D2E/DX2                !
 ! R8    R(8,9)                  1.1161         estimate D2E/DX2                !
 ! R9    R(8,10)                 1.5469         estimate D2E/DX2                !
 ! R10   R(8,17)                 1.5385         estimate D2E/DX2                !
 ! R11   R(10,11)                1.1151         estimate D2E/DX2                !
 ! R12   R(10,12)                1.1146         estimate D2E/DX2                !
 ! R13   R(10,13)                1.5293         estimate D2E/DX2                !
 ! R14   R(13,14)                1.1126         estimate D2E/DX2                !
 ! R15   R(13,15)                1.1137         estimate D2E/DX2                !
 ! R16   R(13,16)                1.1136         estimate D2E/DX2                !
 ! R17   R(17,18)                1.1139         estimate D2E/DX2                !
 ! R18   R(17,19)                1.1134         estimate D2E/DX2                !
 ! R19   R(17,20)                1.1129         estimate D2E/DX2                !
 ! A1    A(2,1,3)              109.3371         estimate D2E/DX2                !
 ! A2    A(2,1,4)              108.2796         estimate D2E/DX2                !
 ! A3    A(2,1,5)              110.902          estimate D2E/DX2                !
 ! A4    A(3,1,4)              108.2077         estimate D2E/DX2                !
 ! A5    A(3,1,5)              110.7713         estimate D2E/DX2                !
 ! A6    A(4,1,5)              109.2672         estimate D2E/DX2                !
 ! A7    A(1,5,6)              107.9548         estimate D2E/DX2                !
 ! A8    A(1,5,7)              108.0822         estimate D2E/DX2                !
 ! A9    A(1,5,8)              115.9119         estimate D2E/DX2                !
 ! A10   A(6,5,7)              106.8194         estimate D2E/DX2                !
 ! A11   A(6,5,8)              108.7798         estimate D2E/DX2                !
 ! A12   A(7,5,8)              108.9273         estimate D2E/DX2                !
 ! A13   A(5,8,9)              105.4252         estimate D2E/DX2                !
 ! A14   A(5,8,10)             112.2791         estimate D2E/DX2                !
 ! A15   A(5,8,17)             111.9708         estimate D2E/DX2                !
 ! A16   A(9,8,10)             107.402          estimate D2E/DX2                !
 ! A17   A(9,8,17)             106.5504         estimate D2E/DX2                !
 ! A18   A(10,8,17)            112.6617         estimate D2E/DX2                !
 ! A19   A(8,10,11)            109.0721         estimate D2E/DX2                !
 ! A20   A(8,10,12)            110.0291         estimate D2E/DX2                !
 ! A21   A(8,10,13)            114.2707         estimate D2E/DX2                !
 ! A22   A(11,10,12)           107.7654         estimate D2E/DX2                !
 ! A23   A(11,10,13)           107.0758         estimate D2E/DX2                !
 ! A24   A(12,10,13)           108.4018         estimate D2E/DX2                !
 ! A25   A(10,13,14)           110.8909         estimate D2E/DX2                !
 ! A26   A(10,13,15)           109.3932         estimate D2E/DX2                !
 ! A27   A(10,13,16)           110.444          estimate D2E/DX2                !
 ! A28   A(14,13,15)           108.1955         estimate D2E/DX2                !
 ! A29   A(14,13,16)           109.2988         estimate D2E/DX2                !
 ! A30   A(15,13,16)           108.5571         estimate D2E/DX2                !
 ! A31   A(8,17,18)            110.4363         estimate D2E/DX2                !
 ! A32   A(8,17,19)            110.9864         estimate D2E/DX2                !
 ! A33   A(8,17,20)            110.4901         estimate D2E/DX2                !
 ! A34   A(18,17,19)           108.7755         estimate D2E/DX2                !
 ! A35   A(18,17,20)           107.542          estimate D2E/DX2                !
 ! A36   A(19,17,20)           108.5144         estimate D2E/DX2                !
 ! D1    D(2,1,5,6)           -178.2413         estimate D2E/DX2                !
 ! D2    D(2,1,5,7)            -63.0416         estimate D2E/DX2                !
 ! D3    D(2,1,5,8)             59.505          estimate D2E/DX2                !
 ! D4    D(3,1,5,6)             60.1615         estimate D2E/DX2                !
 ! D5    D(3,1,5,7)            175.3612         estimate D2E/DX2                !
 ! D6    D(3,1,5,8)            -62.0922         estimate D2E/DX2                !
 ! D7    D(4,1,5,6)            -58.9555         estimate D2E/DX2                !
 ! D8    D(4,1,5,7)             56.2442         estimate D2E/DX2                !
 ! D9    D(4,1,5,8)            178.7908         estimate D2E/DX2                !
 ! D10   D(1,5,8,9)            178.4642         estimate D2E/DX2                !
 ! D11   D(1,5,8,10)            61.828          estimate D2E/DX2                !
 ! D12   D(1,5,8,17)           -66.0708         estimate D2E/DX2                !
 ! D13   D(6,5,8,9)             56.6483         estimate D2E/DX2                !
 ! D14   D(6,5,8,10)           -59.9879         estimate D2E/DX2                !
 ! D15   D(6,5,8,17)           172.1132         estimate D2E/DX2                !
 ! D16   D(7,5,8,9)            -59.4362         estimate D2E/DX2                !
 ! D17   D(7,5,8,10)          -176.0724         estimate D2E/DX2                !
 ! D18   D(7,5,8,17)            56.0288         estimate D2E/DX2                !
 ! D19   D(5,8,10,11)           44.6242         estimate D2E/DX2                !
 ! D20   D(5,8,10,12)          -73.3881         estimate D2E/DX2                !
 ! D21   D(5,8,10,13)          164.4066         estimate D2E/DX2                !
 ! D22   D(9,8,10,11)          -70.8202         estimate D2E/DX2                !
 ! D23   D(9,8,10,12)          171.1675         estimate D2E/DX2                !
 ! D24   D(9,8,10,13)           48.9623         estimate D2E/DX2                !
 ! D25   D(17,8,10,11)         172.1563         estimate D2E/DX2                !
 ! D26   D(17,8,10,12)          54.1439         estimate D2E/DX2                !
 ! D27   D(17,8,10,13)         -68.0613         estimate D2E/DX2                !
 ! D28   D(5,8,17,18)          -48.3078         estimate D2E/DX2                !
 ! D29   D(5,8,17,19)           72.4103         estimate D2E/DX2                !
 ! D30   D(5,8,17,20)         -167.1642         estimate D2E/DX2                !
 ! D31   D(9,8,17,18)           66.4696         estimate D2E/DX2                !
 ! D32   D(9,8,17,19)         -172.8123         estimate D2E/DX2                !
 ! D33   D(9,8,17,20)          -52.3868         estimate D2E/DX2                !
 ! D34   D(10,8,17,18)        -176.0026         estimate D2E/DX2                !
 ! D35   D(10,8,17,19)         -55.2845         estimate D2E/DX2                !
 ! D36   D(10,8,17,20)          65.141          estimate D2E/DX2                !
 ! D37   D(8,10,13,14)          65.5248         estimate D2E/DX2                !
 ! D38   D(8,10,13,15)        -175.2202         estimate D2E/DX2                !
 ! D39   D(8,10,13,16)         -55.7945         estimate D2E/DX2                !
 ! D40   D(11,10,13,14)       -173.5795         estimate D2E/DX2                !
 ! D41   D(11,10,13,15)        -54.3246         estimate D2E/DX2                !
 ! D42   D(11,10,13,16)         65.1012         estimate D2E/DX2                !
 ! D43   D(12,10,13,14)        -57.5657         estimate D2E/DX2                !
 ! D44   D(12,10,13,15)         61.6893         estimate D2E/DX2                !
 ! D45   D(12,10,13,16)       -178.885          estimate D2E/DX2                !
 --------------------------------------------------------------------------------
 Trust Radius=3.00D-01 FncErr=1.00D-07 GrdErr=1.00D-07
 Number of steps in this run= 110 maximum allowed number of steps= 120.
 GradGradGradGradGradGradGradGradGradGradGradGradGradGradGradGradGradGrad

 Leave Link  103 at Mon Sep 14 19:12:20 2015, MaxMem=  402653184 cpu:       0.0
 (Enter /share/apps/g09/l202.exe)
                          Input orientation:                          
 ---------------------------------------------------------------------
 Center     Atomic      Atomic             Coordinates (Angstroms)
 Number     Number       Type             X           Y           Z
 ---------------------------------------------------------------------
      1          6           0       -2.519100   -0.656100   -0.464700
      2          1           0       -2.270300   -1.336400   -1.309300
      3          1           0       -2.870900    0.319400   -0.868600
      4          1           0       -3.351600   -1.112200    0.117600
      5          6           0       -1.309600   -0.459400    0.452600
      6          1           0       -1.621100    0.201100    1.295300
      7          1           0       -1.048000   -1.448000    0.897200
      8          6           0       -0.048000    0.141900   -0.211500
      9          1           0        0.703600    0.234400    0.608400
     10          6           0       -0.299900    1.562100   -0.770600
     11          1           0       -0.867300    2.155400   -0.016000
     12          1           0       -0.920800    1.504100   -1.694400
     13          6           0        0.973200    2.345700   -1.093000
     14          1           0        1.533400    1.866900   -1.926600
     15          1           0        0.701900    3.379800   -1.405100
     16          1           0        1.629900    2.407100   -0.195700
     17          6           0        0.559800   -0.808000   -1.258100
     18          1           0        0.658600   -1.835600   -0.839800
     19          1           0       -0.074400   -0.852600   -2.172100
     20          1           0        1.577500   -0.465600   -1.550500
 ---------------------------------------------------------------------
                    Distance matrix (angstroms):
                    1          2          3          4          5
     1  C    0.000000
     2  H    1.112681   0.000000
     3  H    1.112879   1.815657   0.000000
     4  H    1.113623   1.804306   1.803647   0.000000
     5  C    1.530693   2.190061   2.188551   2.169824   0.000000
     6  H    2.153786   3.093430   2.501691   2.471106   1.115095
     7  H    2.155461   2.524899   3.092688   2.455017   1.115094
     8  C    2.609071   2.886027   2.903799   3.548922   1.547328
     9  H    3.511457   3.871572   3.868566   4.301030   2.135089
    10  C    3.152592   3.545980   2.857262   4.153752   2.569470
    11  H    3.291551   3.979158   2.848199   4.106922   2.693027
    12  H    2.955197   3.168263   2.426592   4.004642   2.935321
    13  C    4.647765   4.911714   4.351247   5.668026   3.933019
    14  H    4.992538   5.011020   4.786646   6.075937   4.376633
    15  H    5.248589   5.575455   4.734847   6.239194   4.715574
    16  H    5.164277   5.519552   5.006844   6.107288   4.156654
    17  C    3.183109   2.879461   3.632140   4.157420   2.557865
    18  H    3.410234   3.008004   4.135484   4.185884   2.727276
    19  H    2.988375   2.408415   3.300471   4.006265   2.927350
    20  H    4.242332   3.952472   4.568312   5.243727   3.513943
                    6          7          8          9         10
     6  H    0.000000
     7  H    1.790659   0.000000
     8  C    2.179127   2.181054   0.000000
     9  H    2.424288   2.445808   1.116107   0.000000
    10  C    2.804609   3.521635   1.546937   2.161352   0.000000
    11  H    2.471237   3.721704   2.182580   2.558875   1.115064
    12  H    3.335646   3.930326   2.194621   3.090906   1.114579
    13  C    4.127188   4.736909   2.583917   2.724892   1.529299
    14  H    4.806912   5.062216   2.901382   3.127275   2.188659
    15  H    4.774162   5.627645   3.531434   3.734665   2.170306
    16  H    4.202204   4.819479   2.818994   2.495042   2.183727
    17  C    3.506346   2.764044   1.538539   2.142685   2.567901
    18  H    3.728784   2.465743   2.191929   2.526699   3.530988
    19  H    3.940232   3.274599   2.198563   3.085131   2.801041
    20  H    4.332910   3.721504   2.191855   2.431985   2.871314
                   11         12         13         14         15
    11  H    0.000000
    12  H    1.801133   0.000000
    13  C    2.140930   2.158057   0.000000
    14  H    3.081718   2.491714   1.112638   0.000000
    15  H    2.427168   2.497018   1.113720   1.803392   0.000000
    16  H    2.516278   3.093151   1.113630   1.815804   1.808308
    17  C    3.515845   2.779989   3.184962   2.924018   4.192788
    18  H    4.351448   3.791892   4.200756   3.956629   5.246126
    19  H    3.784907   2.549240   3.534267   3.168749   4.370828
    20  H    3.898894   3.184639   2.911682   2.363039   3.946507
                   16         17         18         19         20
    16  H    0.000000
    17  C    3.551151   0.000000
    18  H    4.399863   1.113866   0.000000
    19  H    4.175696   1.113371   1.810691   0.000000
    20  H    3.176576   1.112856   1.796210   1.806912   0.000000
 Stoichiometry    C6H14
 Framework group  C1[X(C6H14)]
 Deg. of freedom    54
 Full point group                 C1      NOp   1
 Largest Abelian subgroup         C1      NOp   1
 Largest concise Abelian subgroup C1      NOp   1
                         Standard orientation:                         
 ---------------------------------------------------------------------
 Center     Atomic      Atomic             Coordinates (Angstroms)
 Number     Number       Type             X           Y           Z
 ---------------------------------------------------------------------
      1          6           0        2.163174   -0.611560   -0.547566
      2          1           0        2.261708    0.247115   -1.248299
      3          1           0        1.653382   -1.453893   -1.066301
      4          1           0        3.185467   -0.947281   -0.260570
      5          6           0        1.393532   -0.203713    0.711137
      6          1           0        1.351748   -1.087402    1.389948
      7          1           0        1.984315    0.580991    1.239008
      8          6           0       -0.045173    0.318738    0.484422
      9          1           0       -0.446729    0.534269    1.503242
     10          6           0       -0.962263   -0.748574   -0.158076
     11          1           0       -0.799848   -1.725129    0.355081
     12          1           0       -0.698778   -0.881236   -1.232908
     13          6           0       -2.455787   -0.433948   -0.062412
     14          1           0       -2.708947    0.473018   -0.655106
     15          1           0       -3.040818   -1.289815   -0.469356
     16          1           0       -2.752532   -0.274624    0.999063
     17          6           0       -0.059119    1.652005   -0.283241
     18          1           0        0.665744    2.367775    0.167253
     19          1           0        0.206735    1.498708   -1.353482
     20          1           0       -1.067626    2.119824   -0.233149
 ---------------------------------------------------------------------
 Rotational constants (GHZ):      5.1233527      2.0894999      1.7711680
 Leave Link  202 at Mon Sep 14 19:12:20 2015, MaxMem=  402653184 cpu:       0.0
 (Enter /share/apps/g09/l301.exe)
 Standard basis: VSTO-6G (5D, 7F)
 Ernie: Thresh=  0.10000D-02 Tol=  0.10000D-05 Strict=F.
  NNHCO=     0 NNPyr=     0 NCTC=     0               EPep=         0.000000000
    EC=       129.987356169  ECS=         3.134087372   EG=         0.305415197
   EHC=         0.000407995  EAt=       -31.187935768  AtH=         2.796400831
 EPDDG=         0.000000000  ECC=       133.427266733 EAtT=        33.984336599
 There are    38 symmetry adapted basis functions of A   symmetry.
 Integral buffers will be    131072 words long.
 Regular integral format.
 Two-electron integral symmetry is turned off.
    38 basis functions,   228 primitive gaussians,    38 cartesian basis functions
    19 alpha electrons       19 beta electrons
       nuclear repulsion energy       167.4116033321 Hartrees.
 IExCor=    0 DFT=F Ex=HF Corr=None ExCW=0 ScaHFX=  1.000000
 ScaDFX=  1.000000  1.000000  1.000000  1.000000 ScalE2=  1.000000  1.000000
 IRadAn=      0 IRanWt=     -1 IRanGd=            0 ICorTp=0
 Leave Link  301 at Mon Sep 14 19:12:21 2015, MaxMem=  402653184 cpu:       0.1
 (Enter /share/apps/g09/l302.exe)
 Do NDO integrals.
 NPDir=0 NMtPBC=     1 NCelOv=     1 NCel=       1 NClECP=     1 NCelD=      1
         NCelK=      1 NCelE2=     1 NClLst=     1 CellRange=     0.0.
 One-electron integrals computed using PRISM.
 NBasis=    38 RedAO= F  NBF=    38
 NBsUse=    38 1.00D-04 NBFU=    38
 Leave Link  302 at Mon Sep 14 19:12:23 2015, MaxMem=  402653184 cpu:       0.1
 (Enter /share/apps/g09/l303.exe)
 DipDrv:  MaxL=1.
 Leave Link  303 at Mon Sep 14 19:12:23 2015, MaxMem=  402653184 cpu:       0.1
 (Enter /share/apps/g09/l401.exe)
 Simple Huckel Guess.
 Initial guess orbital symmetries:
       Occupied  (A) (A) (A) (A) (A) (A) (A) (A) (A) (A) (A) (A)
                 (A) (A) (A) (A) (A) (A) (A)
       Virtual   (A) (A) (A) (A) (A) (A) (A) (A) (A) (A) (A) (A)
                 (A) (A) (A) (A) (A) (A) (A)
 The electronic state of the initial guess is 1-A.
 Leave Link  401 at Mon Sep 14 19:12:23 2015, MaxMem=  402653184 cpu:       0.1
 (Enter /share/apps/g09/l502.exe)
 Closed shell SCF:
 Requested convergence on RMS density matrix=1.00D-08 within 128 cycles.
 Requested convergence on MAX density matrix=1.00D-06.
 Requested convergence on             energy=1.00D-06.
 No special actions if energy rises.
 Using DIIS extrapolation, IDIIS=  1040.
 Overlap will be assumed to be unity.
 Two-electron integral symmetry not used.
 Keep J ints in memory in canonical form, NReq=884654.
 IEnd=       81865 IEndB=       81865 NGot=   402653184 MDV=   402586639
 LenX=   402586639 LenY=   402584754
 Symmetry not used in FoFDir.
 MinBra= 0 MaxBra= 1 Meth=40.
 IRaf=       0 NMat=   1 IRICut=       1 DoRegI=T DoRafI=F ISym2E= 0 JSym2E=0.

 Cycle   1  Pass 1  IDiag  1:
 E= 0.733570606362548E-01
 DIIS: error= 2.19D-02 at cycle   1 NSaved=   1.
 NSaved= 1 IEnMin= 1 EnMin= 0.733570606362548E-01 IErMin= 1 ErrMin= 2.19D-02
 ErrMax= 2.19D-02 EMaxC= 1.00D-01 BMatC= 4.36D-02 BMatP= 4.36D-02
 IDIUse=3 WtCom= 7.81D-01 WtEn= 2.19D-01
 Coeff-Com:  0.100D+01
 Coeff-En:   0.100D+01
 Coeff:      0.100D+01
 GapD=    2.000 DampG=2.000 DampE=0.500 DampFc=1.0000 IDamp=-1.
 RMSDP=8.38D-03 MaxDP=6.93D-02              OVMax= 0.00D+00

 Cycle   2  Pass 1  IDiag  1:
 E=-0.420647167799189E-01 Delta-E=       -0.115421777416 Rises=F Damp=F
 DIIS: error= 5.39D-03 at cycle   2 NSaved=   2.
 NSaved= 2 IEnMin= 2 EnMin=-0.420647167799189E-01 IErMin= 2 ErrMin= 5.39D-03
 ErrMax= 5.39D-03 EMaxC= 1.00D-01 BMatC= 2.94D-03 BMatP= 4.36D-02
 IDIUse=3 WtCom= 9.46D-01 WtEn= 5.39D-02
 Coeff-Com: -0.314D+00 0.131D+01
 Coeff-En:   0.000D+00 0.100D+01
 Coeff:     -0.298D+00 0.130D+01
 RMSDP=3.03D-03 MaxDP=2.12D-02 DE=-1.15D-01 OVMax= 0.00D+00

 Cycle   3  Pass 1  IDiag  3:
 E=-0.518615276310470E-01 Delta-E=       -0.009796810851 Rises=F Damp=F
 DIIS: error= 1.55D-03 at cycle   3 NSaved=   3.
 NSaved= 3 IEnMin= 3 EnMin=-0.518615276310470E-01 IErMin= 3 ErrMin= 1.55D-03
 ErrMax= 1.55D-03 EMaxC= 1.00D-01 BMatC= 1.26D-04 BMatP= 2.94D-03
 IDIUse=3 WtCom= 9.85D-01 WtEn= 1.55D-02
 Coeff-Com:  0.226D+00-0.100D+01 0.178D+01
 Coeff-En:   0.000D+00 0.000D+00 0.100D+01
 Coeff:      0.222D+00-0.989D+00 0.177D+01
 Gap=     0.554 Goal=   None    Shift=    0.000
 RMSDP=1.09D-03 MaxDP=1.00D-02 DE=-9.80D-03 OVMax= 0.00D+00

 Cycle   4  Pass 1  IDiag  3:
 E=-0.526679536140193E-01 Delta-E=       -0.000806425983 Rises=F Damp=F
 DIIS: error= 4.55D-04 at cycle   4 NSaved=   4.
 NSaved= 4 IEnMin= 4 EnMin=-0.526679536140193E-01 IErMin= 4 ErrMin= 4.55D-04
 ErrMax= 4.55D-04 EMaxC= 1.00D-01 BMatC= 9.79D-06 BMatP= 1.26D-04
 IDIUse=3 WtCom= 9.95D-01 WtEn= 4.55D-03
 Coeff-Com: -0.113D+00 0.514D+00-0.114D+01 0.174D+01
 Coeff-En:   0.000D+00 0.000D+00 0.000D+00 0.100D+01
 Coeff:     -0.113D+00 0.512D+00-0.114D+01 0.174D+01
 Gap=     0.555 Goal=   None    Shift=    0.000
 RMSDP=3.86D-04 MaxDP=3.99D-03 DE=-8.06D-04 OVMax= 0.00D+00

 Cycle   5  Pass 1  IDiag  3:
 E=-0.527375515050608E-01 Delta-E=       -0.000069597891 Rises=F Damp=F
 DIIS: error= 1.11D-04 at cycle   5 NSaved=   5.
 NSaved= 5 IEnMin= 5 EnMin=-0.527375515050608E-01 IErMin= 5 ErrMin= 1.11D-04
 ErrMax= 1.11D-04 EMaxC= 1.00D-01 BMatC= 3.76D-07 BMatP= 9.79D-06
 IDIUse=3 WtCom= 9.99D-01 WtEn= 1.11D-03
 Coeff-Com:  0.539D-01-0.247D+00 0.577D+00-0.998D+00 0.161D+01
 Coeff-En:   0.000D+00 0.000D+00 0.000D+00 0.000D+00 0.100D+01
 Coeff:      0.539D-01-0.247D+00 0.576D+00-0.997D+00 0.161D+01
 Gap=     0.555 Goal=   None    Shift=    0.000
 RMSDP=6.37D-05 MaxDP=7.44D-04 DE=-6.96D-05 OVMax= 0.00D+00

 Cycle   6  Pass 1  IDiag  3:
 E=-0.527400768910411E-01 Delta-E=       -0.000002525386 Rises=F Damp=F
 DIIS: error= 3.41D-05 at cycle   6 NSaved=   6.
 NSaved= 6 IEnMin= 6 EnMin=-0.527400768910411E-01 IErMin= 6 ErrMin= 3.41D-05
 ErrMax= 3.41D-05 EMaxC= 1.00D-01 BMatC= 3.59D-08 BMatP= 3.76D-07
 IDIUse=1 WtCom= 1.00D+00 WtEn= 0.00D+00
 Coeff-Com: -0.688D-02 0.320D-01-0.816D-01 0.160D+00-0.486D+00 0.138D+01
 Coeff:     -0.688D-02 0.320D-01-0.816D-01 0.160D+00-0.486D+00 0.138D+01
 Gap=     0.555 Goal=   None    Shift=    0.000
 RMSDP=1.94D-05 MaxDP=2.42D-04 DE=-2.53D-06 OVMax= 0.00D+00

 Cycle   7  Pass 1  IDiag  3:
 E=-0.527403309112060E-01 Delta-E=       -0.000000254020 Rises=F Damp=F
 DIIS: error= 1.03D-05 at cycle   7 NSaved=   7.
 NSaved= 7 IEnMin= 7 EnMin=-0.527403309112060E-01 IErMin= 7 ErrMin= 1.03D-05
 ErrMax= 1.03D-05 EMaxC= 1.00D-01 BMatC= 6.06D-09 BMatP= 3.59D-08
 IDIUse=1 WtCom= 1.00D+00 WtEn= 0.00D+00
 Coeff-Com:  0.258D-02-0.122D-01 0.329D-01-0.670D-01 0.242D+00-0.105D+01
 Coeff-Com:  0.185D+01
 Coeff:      0.258D-02-0.122D-01 0.329D-01-0.670D-01 0.242D+00-0.105D+01
 Coeff:      0.185D+01
 Gap=     0.555 Goal=   None    Shift=    0.000
 RMSDP=1.02D-05 MaxDP=1.07D-04 DE=-2.54D-07 OVMax= 0.00D+00

 Cycle   8  Pass 1  IDiag  3:
 E=-0.527403817847585E-01 Delta-E=       -0.000000050874 Rises=F Damp=F
 DIIS: error= 3.80D-06 at cycle   8 NSaved=   8.
 NSaved= 8 IEnMin= 8 EnMin=-0.527403817847585E-01 IErMin= 8 ErrMin= 3.80D-06
 ErrMax= 3.80D-06 EMaxC= 1.00D-01 BMatC= 6.37D-10 BMatP= 6.06D-09
 IDIUse=1 WtCom= 1.00D+00 WtEn= 0.00D+00
 Coeff-Com: -0.871D-03 0.433D-02-0.142D-01 0.334D-01-0.156D+00 0.823D+00
 Coeff-Com: -0.175D+01 0.206D+01
 Coeff:     -0.871D-03 0.433D-02-0.142D-01 0.334D-01-0.156D+00 0.823D+00
 Coeff:     -0.175D+01 0.206D+01
 Gap=     0.555 Goal=   None    Shift=    0.000
 RMSDP=3.78D-06 MaxDP=3.71D-05 DE=-5.09D-08 OVMax= 0.00D+00

 Cycle   9  Pass 1  IDiag  3:
 E=-0.527403871730314E-01 Delta-E=       -0.000000005388 Rises=F Damp=F
 DIIS: error= 4.70D-07 at cycle   9 NSaved=   9.
 NSaved= 9 IEnMin= 9 EnMin=-0.527403871730314E-01 IErMin= 9 ErrMin= 4.70D-07
 ErrMax= 4.70D-07 EMaxC= 1.00D-01 BMatC= 1.60D-11 BMatP= 6.37D-10
 IDIUse=1 WtCom= 1.00D+00 WtEn= 0.00D+00
 Coeff-Com: -0.112D-03 0.401D-03 0.458D-03-0.384D-02 0.368D-01-0.245D+00
 Coeff-Com:  0.563D+00-0.783D+00 0.143D+01
 Coeff:     -0.112D-03 0.401D-03 0.458D-03-0.384D-02 0.368D-01-0.245D+00
 Coeff:      0.563D+00-0.783D+00 0.143D+01
 Gap=     0.555 Goal=   None    Shift=    0.000
 RMSDP=4.40D-07 MaxDP=4.43D-06 DE=-5.39D-09 OVMax= 0.00D+00

 Cycle  10  Pass 1  IDiag  3:
 E=-0.527403872696652E-01 Delta-E=       -0.000000000097 Rises=F Damp=F
 DIIS: error= 1.50D-07 at cycle  10 NSaved=  10.
 NSaved=10 IEnMin=10 EnMin=-0.527403872696652E-01 IErMin=10 ErrMin= 1.50D-07
 ErrMax= 1.50D-07 EMaxC= 1.00D-01 BMatC= 8.13D-13 BMatP= 1.60D-11
 IDIUse=1 WtCom= 1.00D+00 WtEn= 0.00D+00
 Coeff-Com:  0.400D-05 0.319D-04-0.694D-03 0.254D-02-0.180D-01 0.113D+00
 Coeff-Com: -0.257D+00 0.359D+00-0.756D+00 0.156D+01
 Coeff:      0.400D-05 0.319D-04-0.694D-03 0.254D-02-0.180D-01 0.113D+00
 Coeff:     -0.257D+00 0.359D+00-0.756D+00 0.156D+01
 Gap=     0.555 Goal=   None    Shift=    0.000
 RMSDP=8.45D-08 MaxDP=6.86D-07 DE=-9.66D-11 OVMax= 0.00D+00

 Cycle  11  Pass 1  IDiag  3:
 E=-0.527403872744401E-01 Delta-E=       -0.000000000005 Rises=F Damp=F
 DIIS: error= 4.08D-08 at cycle  11 NSaved=  11.
 NSaved=11 IEnMin=11 EnMin=-0.527403872744401E-01 IErMin=11 ErrMin= 4.08D-08
 ErrMax= 4.08D-08 EMaxC= 1.00D-01 BMatC= 4.97D-14 BMatP= 8.13D-13
 IDIUse=1 WtCom= 1.00D+00 WtEn= 0.00D+00
 Coeff-Com:  0.962D-05-0.667D-04 0.433D-03-0.135D-02 0.846D-02-0.513D-01
 Coeff-Com:  0.116D+00-0.161D+00 0.345D+00-0.892D+00 0.164D+01
 Coeff:      0.962D-05-0.667D-04 0.433D-03-0.135D-02 0.846D-02-0.513D-01
 Coeff:      0.116D+00-0.161D+00 0.345D+00-0.892D+00 0.164D+01
 Gap=     0.555 Goal=   None    Shift=    0.000
 RMSDP=2.37D-08 MaxDP=2.49D-07 DE=-4.77D-12 OVMax= 0.00D+00

 Cycle  12  Pass 1  IDiag  3:
 E=-0.527403872747811E-01 Delta-E=        0.000000000000 Rises=F Damp=F
 DIIS: error= 4.60D-09 at cycle  12 NSaved=  12.
 NSaved=12 IEnMin=12 EnMin=-0.527403872747811E-01 IErMin=12 ErrMin= 4.60D-09
 ErrMax= 4.60D-09 EMaxC= 1.00D-01 BMatC= 1.21D-15 BMatP= 4.97D-14
 IDIUse=1 WtCom= 1.00D+00 WtEn= 0.00D+00
 Coeff-Com: -0.339D-06 0.912D-05-0.114D-03 0.397D-03-0.271D-02 0.169D-01
 Coeff-Com: -0.383D-01 0.535D-01-0.116D+00 0.316D+00-0.665D+00 0.144D+01
 Coeff:     -0.339D-06 0.912D-05-0.114D-03 0.397D-03-0.271D-02 0.169D-01
 Coeff:     -0.383D-01 0.535D-01-0.116D+00 0.316D+00-0.665D+00 0.144D+01
 Gap=     0.555 Goal=   None    Shift=    0.000
 RMSDP=2.99D-09 MaxDP=2.87D-08 DE=-3.41D-13 OVMax= 0.00D+00

 Cycle  13  Pass 2  IDiag  1:
 RMSDP=2.99D-09 MaxDP=2.87D-08 DE=-3.41D-13 OVMax= 0.00D+00

 SCF Done:  E(RPM6) = -0.527403872748E-01 A.U. after   13 cycles
             Convg  =    0.2987D-08             -V/T =  0.9991
 KE=-5.615030852544D+01 PE=-2.559715873781D+02 EE= 1.446575521841D+02
 Leave Link  502 at Mon Sep 14 19:12:25 2015, MaxMem=  402653184 cpu:       1.6
 (Enter /share/apps/g09/l601.exe)
 Copying SCF densities to generalized density rwf, IOpCl= 0 IROHF=0.

 **********************************************************************

            Population analysis using the SCF density.

 **********************************************************************

 Orbital symmetries:
       Occupied  (A) (A) (A) (A) (A) (A) (A) (A) (A) (A) (A) (A)
                 (A) (A) (A) (A) (A) (A) (A)
       Virtual   (A) (A) (A) (A) (A) (A) (A) (A) (A) (A) (A) (A)
                 (A) (A) (A) (A) (A) (A) (A)
 The electronic state is 1-A.
 Alpha  occ. eigenvalues --   -1.05452  -0.96522  -0.90796  -0.82500  -0.76984
 Alpha  occ. eigenvalues --   -0.67684  -0.57887  -0.56003  -0.55151  -0.52385
 Alpha  occ. eigenvalues --   -0.48575  -0.47987  -0.47613  -0.46213  -0.44906
 Alpha  occ. eigenvalues --   -0.42484  -0.40697  -0.40481  -0.40022
 Alpha virt. eigenvalues --    0.15441   0.16240   0.16470   0.17682   0.18302
 Alpha virt. eigenvalues --    0.21162   0.21327   0.21777   0.21867   0.22321
 Alpha virt. eigenvalues --    0.22386   0.22991   0.23169   0.23684   0.24051
 Alpha virt. eigenvalues --    0.24577   0.25090   0.25322   0.25825
          Condensed to atoms (all electrons):
              1          2          3          4          5          6
     1  C    4.448600   0.000000   0.000000   0.000000   0.000000   0.000000
     2  H    0.000000   0.852447   0.000000   0.000000   0.000000   0.000000
     3  H    0.000000   0.000000   0.854419   0.000000   0.000000   0.000000
     4  H    0.000000   0.000000   0.000000   0.860819   0.000000   0.000000
     5  C    0.000000   0.000000   0.000000   0.000000   4.263973   0.000000
     6  H    0.000000   0.000000   0.000000   0.000000   0.000000   0.873785
     7  H    0.000000   0.000000   0.000000   0.000000   0.000000   0.000000
     8  C    0.000000   0.000000   0.000000   0.000000   0.000000   0.000000
     9  H    0.000000   0.000000   0.000000   0.000000   0.000000   0.000000
    10  C    0.000000   0.000000   0.000000   0.000000   0.000000   0.000000
    11  H    0.000000   0.000000   0.000000   0.000000   0.000000   0.000000
    12  H    0.000000   0.000000   0.000000   0.000000   0.000000   0.000000
    13  C    0.000000   0.000000   0.000000   0.000000   0.000000   0.000000
    14  H    0.000000   0.000000   0.000000   0.000000   0.000000   0.000000
    15  H    0.000000   0.000000   0.000000   0.000000   0.000000   0.000000
    16  H    0.000000   0.000000   0.000000   0.000000   0.000000   0.000000
    17  C    0.000000   0.000000   0.000000   0.000000   0.000000   0.000000
    18  H    0.000000   0.000000   0.000000   0.000000   0.000000   0.000000
    19  H    0.000000   0.000000   0.000000   0.000000   0.000000   0.000000
    20  H    0.000000   0.000000   0.000000   0.000000   0.000000   0.000000
              7          8          9         10         11         12
     1  C    0.000000   0.000000   0.000000   0.000000   0.000000   0.000000
     2  H    0.000000   0.000000   0.000000   0.000000   0.000000   0.000000
     3  H    0.000000   0.000000   0.000000   0.000000   0.000000   0.000000
     4  H    0.000000   0.000000   0.000000   0.000000   0.000000   0.000000
     5  C    0.000000   0.000000   0.000000   0.000000   0.000000   0.000000
     6  H    0.000000   0.000000   0.000000   0.000000   0.000000   0.000000
     7  H    0.871541   0.000000   0.000000   0.000000   0.000000   0.000000
     8  C    0.000000   4.023306   0.000000   0.000000   0.000000   0.000000
     9  H    0.000000   0.000000   0.891681   0.000000   0.000000   0.000000
    10  C    0.000000   0.000000   0.000000   4.256559   0.000000   0.000000
    11  H    0.000000   0.000000   0.000000   0.000000   0.872314   0.000000
    12  H    0.000000   0.000000   0.000000   0.000000   0.000000   0.867074
    13  C    0.000000   0.000000   0.000000   0.000000   0.000000   0.000000
    14  H    0.000000   0.000000   0.000000   0.000000   0.000000   0.000000
    15  H    0.000000   0.000000   0.000000   0.000000   0.000000   0.000000
    16  H    0.000000   0.000000   0.000000   0.000000   0.000000   0.000000
    17  C    0.000000   0.000000   0.000000   0.000000   0.000000   0.000000
    18  H    0.000000   0.000000   0.000000   0.000000   0.000000   0.000000
    19  H    0.000000   0.000000   0.000000   0.000000   0.000000   0.000000
    20  H    0.000000   0.000000   0.000000   0.000000   0.000000   0.000000
             13         14         15         16         17         18
     1  C    0.000000   0.000000   0.000000   0.000000   0.000000   0.000000
     2  H    0.000000   0.000000   0.000000   0.000000   0.000000   0.000000
     3  H    0.000000   0.000000   0.000000   0.000000   0.000000   0.000000
     4  H    0.000000   0.000000   0.000000   0.000000   0.000000   0.000000
     5  C    0.000000   0.000000   0.000000   0.000000   0.000000   0.000000
     6  H    0.000000   0.000000   0.000000   0.000000   0.000000   0.000000
     7  H    0.000000   0.000000   0.000000   0.000000   0.000000   0.000000
     8  C    0.000000   0.000000   0.000000   0.000000   0.000000   0.000000
     9  H    0.000000   0.000000   0.000000   0.000000   0.000000   0.000000
    10  C    0.000000   0.000000   0.000000   0.000000   0.000000   0.000000
    11  H    0.000000   0.000000   0.000000   0.000000   0.000000   0.000000
    12  H    0.000000   0.000000   0.000000   0.000000   0.000000   0.000000
    13  C    4.457845   0.000000   0.000000   0.000000   0.000000   0.000000
    14  H    0.000000   0.852773   0.000000   0.000000   0.000000   0.000000
    15  H    0.000000   0.000000   0.857757   0.000000   0.000000   0.000000
    16  H    0.000000   0.000000   0.000000   0.854694   0.000000   0.000000
    17  C    0.000000   0.000000   0.000000   0.000000   4.483180   0.000000
    18  H    0.000000   0.000000   0.000000   0.000000   0.000000   0.854484
    19  H    0.000000   0.000000   0.000000   0.000000   0.000000   0.000000
    20  H    0.000000   0.000000   0.000000   0.000000   0.000000   0.000000
             19         20
     1  C    0.000000   0.000000
     2  H    0.000000   0.000000
     3  H    0.000000   0.000000
     4  H    0.000000   0.000000
     5  C    0.000000   0.000000
     6  H    0.000000   0.000000
     7  H    0.000000   0.000000
     8  C    0.000000   0.000000
     9  H    0.000000   0.000000
    10  C    0.000000   0.000000
    11  H    0.000000   0.000000
    12  H    0.000000   0.000000
    13  C    0.000000   0.000000
    14  H    0.000000   0.000000
    15  H    0.000000   0.000000
    16  H    0.000000   0.000000
    17  C    0.000000   0.000000
    18  H    0.000000   0.000000
    19  H    0.849002   0.000000
    20  H    0.000000   0.853745
 Mulliken atomic charges:
              1
     1  C   -0.448600
     2  H    0.147553
     3  H    0.145581
     4  H    0.139181
     5  C   -0.263973
     6  H    0.126215
     7  H    0.128459
     8  C   -0.023306
     9  H    0.108319
    10  C   -0.256559
    11  H    0.127686
    12  H    0.132926
    13  C   -0.457845
    14  H    0.147227
    15  H    0.142243
    16  H    0.145306
    17  C   -0.483180
    18  H    0.145516
    19  H    0.150998
    20  H    0.146255
 Sum of Mulliken atomic charges =   0.00000
 Mulliken charges with hydrogens summed into heavy atoms:
              1
     1  C   -0.016285
     5  C   -0.009299
     8  C    0.085013
    10  C    0.004053
    13  C   -0.023070
    17  C   -0.040411
 Sum of Mulliken charges with hydrogens summed into heavy atoms =   0.00000
 Charge=              0.0000 electrons
 Dipole moment (field-independent basis, Debye):
    X=              0.0133    Y=             -0.0100    Z=              0.0154  Tot=              0.0227
 N-N= 1.674116033321D+02 E-N=-2.559715873275D+02  KE=-5.615030852544D+01
 Leave Link  601 at Mon Sep 14 19:12:25 2015, MaxMem=  402653184 cpu:       0.0
 (Enter /share/apps/g09/l701.exe)
 Compute integral first derivatives.
 ... and contract with generalized density number  0.
 Leave Link  701 at Mon Sep 14 19:12:27 2015, MaxMem=  402653184 cpu:       0.1
 (Enter /share/apps/g09/l702.exe)
 L702 exits ... SP integral derivatives will be done elsewhere.
 Leave Link  702 at Mon Sep 14 19:12:28 2015, MaxMem=  402653184 cpu:       0.0
 (Enter /share/apps/g09/l703.exe)
 Compute integral first derivatives, UseDBF=F ICtDFT=           0.
 Integral derivatives from FoFDir, PRISM(SPDF).
 Calling FoFJK, ICntrl=      2127 FMM=F ISym2X=0 I1Cent= 0 IOpClX= 0 NMat=1 NMatS=1 NMatT=0.
 FoFCou: FMM=F IPFlag=           0 FMFlag=      100000 FMFlg1=         800
         NFxFlg=           0 DoJE=F BraDBF=F KetDBF=F FulRan=T
         Omega=  0.000000  0.000000  1.000000  0.000000  0.000000 ICntrl=    2127 IOpCl=  0
         NMat0=    1 NMatS0=    1 NMatT0=    0 NMatD0=    1 NMtDS0=    0 NMtDT0=    0
         I1Cent=           0 NGrid=           0.
 Symmetry not used in FoFCou.
 Leave Link  703 at Mon Sep 14 19:12:30 2015, MaxMem=  402653184 cpu:       0.0
 (Enter /share/apps/g09/l716.exe)
 Dipole        = 5.22437522D-03-3.92487607D-03 6.06041325D-03
 ***** Axes restored to original set *****
 -------------------------------------------------------------------
 Center     Atomic                   Forces (Hartrees/Bohr)
 Number     Number              X              Y              Z
 -------------------------------------------------------------------
      1        6          -0.000921179    0.000086116   -0.000816012
      2        1          -0.003553797    0.007035305    0.006184747
      3        1           0.002281598   -0.009787048    0.001581716
      4        1           0.005363032    0.003780715   -0.007202780
      5        6          -0.003448865    0.000539148   -0.001253866
      6        1           0.002526960   -0.002782066   -0.001551585
      7        1           0.000367966    0.004256235   -0.000329187
      8        6           0.001770909   -0.000689346   -0.001570535
      9        1           0.002641633    0.001414111    0.002237240
     10        6          -0.002733837   -0.000460471   -0.000968622
     11        1          -0.001633130   -0.003879368   -0.003269886
     12        1           0.000241042   -0.000666031    0.005146374
     13        6           0.003007679    0.000001211   -0.000121217
     14        1          -0.002814435    0.005120746    0.007984527
     15        1           0.005067800   -0.008207405    0.002388510
     16        1          -0.003626109    0.000408419   -0.009779753
     17        6          -0.000854906   -0.000883190   -0.002151935
     18        1          -0.001158122    0.008797355   -0.005613206
     19        1           0.006799938   -0.000812285    0.008045221
     20        1          -0.009324177   -0.003272151    0.001060248
 -------------------------------------------------------------------
 Cartesian Forces:  Max     0.009787048 RMS     0.004231830
 Leave Link  716 at Mon Sep 14 19:12:30 2015, MaxMem=  402653184 cpu:       0.0
 (Enter /share/apps/g09/l103.exe)

 GradGradGradGradGradGradGradGradGradGradGradGradGradGradGradGradGradGrad
 Berny optimization.
 Internal  Forces:  Max     0.010445418 RMS     0.003630396
 Search for a local minimum.
 Step number   1 out of a maximum of  110
 All quantities printed in internal units (Hartrees-Bohrs-Radians)
 RMS Force = .36304D-02 SwitMx=.10000D-02 MixMth= 1
 Mixed Optimization -- RFO/linear search
 Second derivative matrix not updated -- first step.
     Eigenvalues ---    0.00230   0.00230   0.00256   0.00360   0.00378
     Eigenvalues ---    0.03031   0.03204   0.03382   0.04726   0.04728
     Eigenvalues ---    0.04784   0.04935   0.05459   0.05526   0.05573
     Eigenvalues ---    0.05573   0.05759   0.05765   0.08530   0.08824
     Eigenvalues ---    0.12348   0.12558   0.16000   0.16000   0.16000
     Eigenvalues ---    0.16000   0.16000   0.16000   0.16000   0.16000
     Eigenvalues ---    0.16000   0.17393   0.17519   0.21993   0.21993
     Eigenvalues ---    0.27879   0.27913   0.28649   0.29360   0.29488
     Eigenvalues ---    0.31962   0.32067   0.32067   0.32070   0.32120
     Eigenvalues ---    0.32194   0.32209   0.32219   0.32219   0.32246
     Eigenvalues ---    0.32297   0.32299   0.32318   0.323221000.00000
     Eigenvalues --- 1000.000001000.000001000.000001000.000001000.00000
     Eigenvalues --- 1000.000001000.000001000.000001000.000001000.00000
     Eigenvalues --- 1000.000001000.000001000.000001000.000001000.00000
     Eigenvalues --- 1000.000001000.000001000.000001000.000001000.00000
     Eigenvalues --- 1000.000001000.000001000.000001000.000001000.00000
     Eigenvalues --- 1000.000001000.000001000.000001000.000001000.00000
     Eigenvalues --- 1000.000001000.000001000.000001000.000001000.00000
     Eigenvalues --- 1000.000001000.000001000.000001000.000001000.00000
     Eigenvalues --- 1000.000001000.000001000.000001000.000001000.00000
 RFO step:  Lambda=-5.54091767D-03 EMin= 2.30000000D-03
 Linear search not attempted -- first point.
 Iteration  1 RMS(Cart)=  0.04830724 RMS(Int)=  0.00080199
 Iteration  2 RMS(Cart)=  0.00117377 RMS(Int)=  0.00021633
 Iteration  3 RMS(Cart)=  0.00000051 RMS(Int)=  0.00021633
 Variable       Old X    -DE/DX   Delta X   Delta X   Delta X     New X
                                 (Linear)    (Quad)   (Total)
    R1        2.10266  -0.00979   0.00000  -0.02978  -0.02978   2.07288
    R2        2.10304  -0.00987   0.00000  -0.03006  -0.03006   2.07298
    R3        2.10444  -0.00932   0.00000  -0.02845  -0.02845   2.07599
    R4        2.89259  -0.00250   0.00000  -0.00835  -0.00835   2.88424
    R5        2.10722  -0.00353   0.00000  -0.01081  -0.01081   2.09641
    R6        2.10722  -0.00382   0.00000  -0.01171  -0.01171   2.09552
    R7        2.92403  -0.00480   0.00000  -0.01689  -0.01689   2.90714
    R8        2.10914   0.00354   0.00000   0.01089   0.01089   2.12002
    R9        2.92329  -0.00715   0.00000  -0.02510  -0.02510   2.89818
   R10        2.90742  -0.00507   0.00000  -0.01736  -0.01736   2.89006
   R11        2.10717  -0.00345   0.00000  -0.01056  -0.01056   2.09660
   R12        2.10625  -0.00437   0.00000  -0.01336  -0.01336   2.09289
   R13        2.88996  -0.00011   0.00000  -0.00037  -0.00037   2.88959
   R14        2.10258  -0.00960   0.00000  -0.02921  -0.02921   2.07337
   R15        2.10463  -0.00952   0.00000  -0.02907  -0.02907   2.07556
   R16        2.10446  -0.01000   0.00000  -0.03050  -0.03050   2.07396
   R17        2.10490  -0.01033   0.00000  -0.03153  -0.03153   2.07337
   R18        2.10397  -0.01045   0.00000  -0.03185  -0.03185   2.07212
   R19        2.10299  -0.00981   0.00000  -0.02987  -0.02987   2.07313
    A1        1.90829  -0.00272   0.00000  -0.02437  -0.02434   1.88395
    A2        1.88984  -0.00213   0.00000  -0.00940  -0.00956   1.88028
    A3        1.93561   0.00129   0.00000   0.00523   0.00517   1.94077
    A4        1.88858  -0.00225   0.00000  -0.00870  -0.00896   1.87962
    A5        1.93332   0.00194   0.00000   0.00987   0.00976   1.94308
    A6        1.90707   0.00371   0.00000   0.02668   0.02647   1.93354
    A7        1.88417   0.00289   0.00000   0.02075   0.02068   1.90485
    A8        1.88639   0.00289   0.00000   0.01710   0.01692   1.90331
    A9        2.02304  -0.00589   0.00000  -0.02551  -0.02543   1.99761
   A10        1.86435  -0.00155   0.00000  -0.00875  -0.00896   1.85539
   A11        1.89857   0.00113   0.00000   0.00186   0.00203   1.90060
   A12        1.90114   0.00078   0.00000  -0.00443  -0.00433   1.89681
   A13        1.84002   0.00117   0.00000   0.02994   0.03015   1.87017
   A14        1.95964  -0.00143   0.00000  -0.02494  -0.02574   1.93390
   A15        1.95426   0.00023   0.00000  -0.01307  -0.01422   1.94004
   A16        1.87452   0.00052   0.00000   0.01340   0.01387   1.88838
   A17        1.85965   0.00082   0.00000   0.02606   0.02626   1.88591
   A18        1.96632  -0.00099   0.00000  -0.02292  -0.02377   1.94255
   A19        1.90367   0.00046   0.00000  -0.00146  -0.00126   1.90241
   A20        1.92037   0.00044   0.00000  -0.01149  -0.01140   1.90897
   A21        1.99440  -0.00586   0.00000  -0.02285  -0.02273   1.97167
   A22        1.88086  -0.00210   0.00000  -0.01904  -0.01951   1.86135
   A23        1.86883   0.00408   0.00000   0.03663   0.03654   1.90537
   A24        1.89197   0.00318   0.00000   0.01913   0.01883   1.91080
   A25        1.93541   0.00172   0.00000   0.00877   0.00870   1.94411
   A26        1.90927   0.00334   0.00000   0.02291   0.02269   1.93196
   A27        1.92761   0.00305   0.00000   0.01723   0.01709   1.94470
   A28        1.88837  -0.00230   0.00000  -0.01164  -0.01178   1.87659
   A29        1.90762  -0.00318   0.00000  -0.02435  -0.02435   1.88327
   A30        1.89468  -0.00284   0.00000  -0.01402  -0.01429   1.88039
   A31        1.92748   0.00193   0.00000   0.01314   0.01307   1.94055
   A32        1.93708   0.00135   0.00000   0.00534   0.00534   1.94242
   A33        1.92842   0.00107   0.00000   0.00776   0.00769   1.93611
   A34        1.89849  -0.00205   0.00000  -0.01491  -0.01492   1.88357
   A35        1.87696  -0.00085   0.00000   0.00043   0.00030   1.87726
   A36        1.89393  -0.00163   0.00000  -0.01268  -0.01268   1.88125
    D1       -3.11090  -0.00109   0.00000  -0.01252  -0.01269  -3.12359
    D2       -1.10028   0.00007   0.00000  -0.00335  -0.00328  -1.10356
    D3        1.03856  -0.00075   0.00000  -0.01353  -0.01358   1.02498
    D4        1.05002   0.00017   0.00000   0.00810   0.00806   1.05807
    D5        3.06063   0.00132   0.00000   0.01727   0.01746   3.07809
    D6       -1.08371   0.00050   0.00000   0.00709   0.00717  -1.07655
    D7       -1.02897  -0.00057   0.00000  -0.00400  -0.00414  -1.03311
    D8        0.98165   0.00058   0.00000   0.00518   0.00527   0.98692
    D9        3.12049  -0.00024   0.00000  -0.00500  -0.00503   3.11546
   D10        3.11479  -0.00027   0.00000  -0.00067  -0.00075   3.11404
   D11        1.07910  -0.00085   0.00000  -0.02174  -0.02162   1.05748
   D12       -1.15315   0.00149   0.00000   0.04109   0.04097  -1.11219
   D13        0.98870  -0.00082   0.00000  -0.01151  -0.01159   0.97710
   D14       -1.04699  -0.00140   0.00000  -0.03259  -0.03246  -1.07945
   D15        3.00394   0.00094   0.00000   0.03025   0.03012   3.03407
   D16       -1.03736  -0.00002   0.00000   0.00030   0.00030  -1.03706
   D17       -3.07304  -0.00061   0.00000  -0.02078  -0.02057  -3.09361
   D18        0.97789   0.00174   0.00000   0.04206   0.04202   1.01990
   D19        0.77884  -0.00038   0.00000   0.00597   0.00575   0.78459
   D20       -1.28086   0.00164   0.00000   0.03670   0.03652  -1.24434
   D21        2.86944   0.00133   0.00000   0.03675   0.03646   2.90590
   D22       -1.23605  -0.00133   0.00000  -0.02478  -0.02477  -1.26082
   D23        2.98744   0.00069   0.00000   0.00595   0.00600   2.99343
   D24        0.85455   0.00038   0.00000   0.00600   0.00594   0.86049
   D25        3.00469  -0.00209   0.00000  -0.05211  -0.05187   2.95283
   D26        0.94499  -0.00008   0.00000  -0.02137  -0.02110   0.92389
   D27       -1.18789  -0.00039   0.00000  -0.02133  -0.02116  -1.20905
   D28       -0.84313  -0.00121   0.00000  -0.04137  -0.04126  -0.88439
   D29        1.26380  -0.00161   0.00000  -0.04783  -0.04775   1.21605
   D30       -2.91757  -0.00205   0.00000  -0.05511  -0.05506  -2.97263
   D31        1.16011   0.00078   0.00000   0.00282   0.00289   1.16301
   D32       -3.01614   0.00038   0.00000  -0.00364  -0.00359  -3.01974
   D33       -0.91432  -0.00006   0.00000  -0.01091  -0.01091  -0.92523
   D34       -3.07183   0.00138   0.00000   0.02276   0.02267  -3.04916
   D35       -0.96490   0.00098   0.00000   0.01630   0.01618  -0.94872
   D36        1.13693   0.00053   0.00000   0.00902   0.00887   1.14580
   D37        1.14362  -0.00073   0.00000  -0.02044  -0.02048   1.12315
   D38       -3.05817  -0.00039   0.00000  -0.01486  -0.01489  -3.07306
   D39       -0.97380   0.00008   0.00000  -0.00718  -0.00711  -0.98091
   D40       -3.02953  -0.00092   0.00000  -0.01065  -0.01087  -3.04040
   D41       -0.94814  -0.00059   0.00000  -0.00507  -0.00528  -0.95343
   D42        1.13623  -0.00011   0.00000   0.00261   0.00250   1.13873
   D43       -1.00471   0.00035   0.00000  -0.00420  -0.00406  -1.00877
   D44        1.07668   0.00069   0.00000   0.00138   0.00153   1.07821
   D45       -3.12213   0.00116   0.00000   0.00906   0.00931  -3.11282
         Item               Value     Threshold  Converged?
 Maximum Force            0.010445     0.000450     NO 
 RMS     Force            0.003630     0.000300     NO 
 Maximum Displacement     0.171681     0.001800     NO 
 RMS     Displacement     0.048785     0.001200     NO 
 Predicted change in Energy=-2.880196D-03
 GradGradGradGradGradGradGradGradGradGradGradGradGradGradGradGradGradGrad

 Leave Link  103 at Mon Sep 14 19:12:32 2015, MaxMem=  402653184 cpu:       0.1
 (Enter /share/apps/g09/l202.exe)
                          Input orientation:                          
 ---------------------------------------------------------------------
 Center     Atomic      Atomic             Coordinates (Angstroms)
 Number     Number       Type             X           Y           Z
 ---------------------------------------------------------------------
      1          6           0       -2.470488   -0.630378   -0.488172
      2          1           0       -2.201549   -1.282922   -1.327868
      3          1           0       -2.799454    0.331761   -0.899779
      4          1           0       -3.328310   -1.084085    0.026750
      5          6           0       -1.296085   -0.451831    0.470168
      6          1           0       -1.610227    0.196753    1.313592
      7          1           0       -1.037563   -1.435042    0.913024
      8          6           0       -0.033378    0.145607   -0.174258
      9          1           0        0.734481    0.249735    0.636999
     10          6           0       -0.320359    1.540311   -0.743935
     11          1           0       -0.904905    2.120778   -0.000767
     12          1           0       -0.957690    1.445286   -1.644689
     13          6           0        0.950562    2.313446   -1.097746
     14          1           0        1.506170    1.821639   -1.905974
     15          1           0        0.705447    3.329383   -1.435584
     16          1           0        1.620292    2.401190   -0.232733
     17          6           0        0.533067   -0.786577   -1.246218
     18          1           0        0.649861   -1.807702   -0.862208
     19          1           0       -0.122861   -0.829133   -2.123886
     20          1           0        1.519891   -0.444218   -1.581614
 ---------------------------------------------------------------------
                    Distance matrix (angstroms):
                    1          2          3          4          5
     1  C    0.000000
     2  H    1.096920   0.000000
     3  H    1.096973   1.774247   0.000000
     4  H    1.098568   1.773166   1.772785   0.000000
     5  C    1.526276   2.177961   2.179654   2.174006   0.000000
     6  H    2.161145   3.084869   2.516247   2.499663   1.109374
     7  H    2.159655   2.529743   3.084170   2.481163   1.108899
     8  C    2.576859   2.841211   2.865696   3.522659   1.538391
     9  H    3.508908   3.850976   3.854492   4.319461   2.154814
    10  C    3.066000   3.442455   2.762388   4.065609   2.528778
    11  H    3.202728   3.876552   2.756468   4.018058   2.644451
    12  H    2.816819   3.015075   2.277481   3.848540   2.861151
    13  C    4.554258   4.787758   4.246043   5.578212   3.892626
    14  H    4.882249   4.870286   4.665893   5.962453   4.320573
    15  H    5.163705   5.453034   4.642967   6.155348   4.683546
    16  H    5.098052   5.420191   4.925610   6.058311   4.139934
    17  C    3.101673   2.780495   3.532194   4.076664   2.530580
    18  H    3.355976   2.936456   4.059124   4.140014   2.720352
    19  H    2.868174   2.271677   3.163900   3.868480   2.871921
    20  H    4.141666   3.823210   4.441147   5.147943   3.484192
                    6          7          8          9         10
     6  H    0.000000
     7  H    1.775149   0.000000
     8  C    2.168587   2.165415   0.000000
     9  H    2.440951   2.460651   1.121867   0.000000
    10  C    2.775307   3.480319   1.533652   2.164544   0.000000
    11  H    2.434521   3.673754   2.165862   2.568099   1.109475
    12  H    3.276594   3.852864   2.169259   3.082026   1.107510
    13  C    4.105190   4.695423   2.553526   2.704613   1.529105
    14  H    4.766318   5.002329   2.859743   3.087571   2.183046
    15  H    4.767985   5.590509   3.503317   3.712233   2.175186
    16  H    4.205581   4.805583   2.797445   2.483919   2.183705
    17  C    3.480413   2.747674   1.529354   2.158938   2.528840
    18  H    3.722895   2.477443   2.180712   2.547122   3.487765
    19  H    3.883421   3.229029   2.181553   3.085689   2.749097
    20  H    4.311694   3.707496   2.177427   2.453708   2.833122
                   11         12         13         14         15
    11  H    0.000000
    12  H    1.778076   0.000000
    13  C    2.164080   2.166628   0.000000
    14  H    3.087488   2.506096   1.097181   0.000000
    15  H    2.472379   2.521819   1.098337   1.770795   0.000000
    16  H    2.551286   3.090852   1.097490   1.774441   1.773509
    17  C    3.474424   2.713364   3.131531   2.860943   4.123917
    18  H    4.311883   3.711931   4.138812   3.872316   5.169283
    19  H    3.717687   2.469726   3.475773   3.118945   4.295707
    20  H    3.867547   3.116506   2.857092   2.288996   3.863251
                   16         17         18         19         20
    16  H    0.000000
    17  C    3.517253   0.000000
    18  H    4.364946   1.097179   0.000000
    19  H    4.129168   1.096519   1.773846   0.000000
    20  H    3.150541   1.097051   1.770194   1.772245   0.000000
 Stoichiometry    C6H14
 Framework group  C1[X(C6H14)]
 Deg. of freedom    54
 Full point group                 C1      NOp   1
 Largest Abelian subgroup         C1      NOp   1
 Largest concise Abelian subgroup C1      NOp   1
                         Standard orientation:                         
 ---------------------------------------------------------------------
 Center     Atomic      Atomic             Coordinates (Angstroms)
 Number     Number       Type             X           Y           Z
 ---------------------------------------------------------------------
      1          6           0        2.104572   -0.594170   -0.563379
      2          1           0        2.171012    0.255567   -1.253861
      3          1           0        1.584885   -1.410086   -1.080636
      4          1           0        3.127688   -0.932408   -0.349647
      5          6           0        1.383061   -0.204230    0.723823
      6          1           0        1.351634   -1.080804    1.403044
      7          1           0        1.973237    0.574698    1.247866
      8          6           0       -0.049219    0.318090    0.517902
      9          1           0       -0.470433    0.538186    1.534132
     10          6           0       -0.928613   -0.749924   -0.143991
     11          1           0       -0.748175   -1.725256    0.353106
     12          1           0       -0.624794   -0.872022   -1.201991
     13          6           0       -2.420255   -0.420350   -0.076563
     14          1           0       -2.655700    0.487151   -0.646487
     15          1           0       -3.018198   -1.239749   -0.497742
     16          1           0       -2.749788   -0.263715    0.958502
     17          6           0       -0.052212    1.617815   -0.288094
     18          1           0        0.649085    2.348103    0.134593
     19          1           0        0.234065    1.439931   -1.331529
     20          1           0       -1.048533    2.077017   -0.287538
 ---------------------------------------------------------------------
 Rotational constants (GHZ):      5.2055887      2.1516016      1.8378282
 Leave Link  202 at Mon Sep 14 19:12:34 2015, MaxMem=  402653184 cpu:       0.0
 (Enter /share/apps/g09/l301.exe)
 Standard basis: VSTO-6G (5D, 7F)
 Ernie: Thresh=  0.10000D-02 Tol=  0.10000D-05 Strict=F.
  NNHCO=     0 NNPyr=     0 NCTC=     0               EPep=         0.000000000
    EC=       131.190169761  ECS=         3.233776379   EG=         0.308853335
   EHC=         0.000459471  EAt=       -31.187935768  AtH=         2.796400831
 EPDDG=         0.000000000  ECC=       134.733258946 EAtT=        33.984336599
 There are    38 symmetry adapted basis functions of A   symmetry.
 Integral buffers will be    131072 words long.
 Regular integral format.
 Two-electron integral symmetry is turned off.
    38 basis functions,   228 primitive gaussians,    38 cartesian basis functions
    19 alpha electrons       19 beta electrons
       nuclear repulsion energy       168.7175955448 Hartrees.
 IExCor=    0 DFT=F Ex=HF Corr=None ExCW=0 ScaHFX=  1.000000
 ScaDFX=  1.000000  1.000000  1.000000  1.000000 ScalE2=  1.000000  1.000000
 IRadAn=      0 IRanWt=     -1 IRanGd=            0 ICorTp=0
 Leave Link  301 at Mon Sep 14 19:12:35 2015, MaxMem=  402653184 cpu:       0.1
 (Enter /share/apps/g09/l302.exe)
 Do NDO integrals.
 NPDir=0 NMtPBC=     1 NCelOv=     1 NCel=       1 NClECP=     1 NCelD=      1
         NCelK=      1 NCelE2=     1 NClLst=     1 CellRange=     0.0.
 One-electron integrals computed using PRISM.
 NBasis=    38 RedAO= F  NBF=    38
 NBsUse=    38 1.00D-04 NBFU=    38
 Leave Link  302 at Mon Sep 14 19:12:38 2015, MaxMem=  402653184 cpu:       0.2
 (Enter /share/apps/g09/l303.exe)
 DipDrv:  MaxL=1.
 Leave Link  303 at Mon Sep 14 19:12:38 2015, MaxMem=  402653184 cpu:       0.1
 (Enter /share/apps/g09/l401.exe)
 Initial guess read from the read-write file.
 B after Tr=     0.000000    0.000000    0.000000
         Rot=    1.000000    0.000000    0.000000    0.000000 Ang=   0.00 deg.
 Guess basis will be translated and rotated to current coordinates.
 Initial guess orbital symmetries:
       Occupied  (A) (A) (A) (A) (A) (A) (A) (A) (A) (A) (A) (A)
                 (A) (A) (A) (A) (A) (A) (A)
       Virtual   (A) (A) (A) (A) (A) (A) (A) (A) (A) (A) (A) (A)
                 (A) (A) (A) (A) (A) (A) (A)
 The electronic state of the initial guess is 1-A.
 Leave Link  401 at Mon Sep 14 19:12:39 2015, MaxMem=  402653184 cpu:       0.2
 (Enter /share/apps/g09/l502.exe)
 Closed shell SCF:
 Requested convergence on RMS density matrix=1.00D-08 within 128 cycles.
 Requested convergence on MAX density matrix=1.00D-06.
 Requested convergence on             energy=1.00D-06.
 No special actions if energy rises.
 Using DIIS extrapolation, IDIIS=  1040.
 Overlap will be assumed to be unity.
 Two-electron integral symmetry not used.
 Keep J ints in memory in canonical form, NReq=884654.
 IEnd=       81865 IEndB=       81865 NGot=   402653184 MDV=   402586639
 LenX=   402586639 LenY=   402584754
 Symmetry not used in FoFDir.
 MinBra= 0 MaxBra= 1 Meth=40.
 IRaf=       0 NMat=   1 IRICut=       1 DoRegI=T DoRafI=F ISym2E= 0 JSym2E=0.

 Cycle   1  Pass 1  IDiag  1:
 E=-0.521695612574717E-01
 DIIS: error= 4.70D-03 at cycle   1 NSaved=   1.
 NSaved= 1 IEnMin= 1 EnMin=-0.521695612574717E-01 IErMin= 1 ErrMin= 4.70D-03
 ErrMax= 4.70D-03 EMaxC= 1.00D-01 BMatC= 7.36D-04 BMatP= 7.36D-04
 IDIUse=3 WtCom= 9.53D-01 WtEn= 4.70D-02
 Coeff-Com:  0.100D+01
 Coeff-En:   0.100D+01
 Coeff:      0.100D+01
 GapD=    2.000 DampG=2.000 DampE=1.000 DampFc=2.0000 IDamp=-1.
 RMSDP=1.32D-03 MaxDP=1.19D-02              OVMax= 0.00D+00

 Cycle   2  Pass 1  IDiag  3:
 E=-0.548431954444197E-01 Delta-E=       -0.002673634187 Rises=F Damp=F
 DIIS: error= 2.06D-03 at cycle   2 NSaved=   2.
 NSaved= 2 IEnMin= 2 EnMin=-0.548431954444197E-01 IErMin= 2 ErrMin= 2.06D-03
 ErrMax= 2.06D-03 EMaxC= 1.00D-01 BMatC= 1.23D-04 BMatP= 7.36D-04
 IDIUse=3 WtCom= 9.79D-01 WtEn= 2.06D-02
 Coeff-Com: -0.627D+00 0.163D+01
 Coeff-En:   0.000D+00 0.100D+01
 Coeff:     -0.614D+00 0.161D+01
 Gap=     0.556 Goal=   None    Shift=    0.000
 RMSDP=9.24D-04 MaxDP=8.61D-03 DE=-2.67D-03 OVMax= 0.00D+00

 Cycle   3  Pass 1  IDiag  3:
 E=-0.554434802701280E-01 Delta-E=       -0.000600284826 Rises=F Damp=F
 DIIS: error= 2.16D-04 at cycle   3 NSaved=   3.
 NSaved= 3 IEnMin= 3 EnMin=-0.554434802701280E-01 IErMin= 3 ErrMin= 2.16D-04
 ErrMax= 2.16D-04 EMaxC= 1.00D-01 BMatC= 1.94D-06 BMatP= 1.23D-04
 IDIUse=3 WtCom= 9.98D-01 WtEn= 2.16D-03
 Coeff-Com:  0.214D+00-0.632D+00 0.142D+01
 Coeff-En:   0.000D+00 0.000D+00 0.100D+01
 Coeff:      0.213D+00-0.630D+00 0.142D+01
 Gap=     0.556 Goal=   None    Shift=    0.000
 RMSDP=1.27D-04 MaxDP=1.05D-03 DE=-6.00D-04 OVMax= 0.00D+00

 Cycle   4  Pass 1  IDiag  3:
 E=-0.554532097150400E-01 Delta-E=       -0.000009729445 Rises=F Damp=F
 DIIS: error= 1.67D-05 at cycle   4 NSaved=   4.
 NSaved= 4 IEnMin= 4 EnMin=-0.554532097150400E-01 IErMin= 4 ErrMin= 1.67D-05
 ErrMax= 1.67D-05 EMaxC= 1.00D-01 BMatC= 2.50D-08 BMatP= 1.94D-06
 IDIUse=1 WtCom= 1.00D+00 WtEn= 0.00D+00
 Coeff-Com: -0.785D-01 0.234D+00-0.562D+00 0.141D+01
 Coeff:     -0.785D-01 0.234D+00-0.562D+00 0.141D+01
 Gap=     0.556 Goal=   None    Shift=    0.000
 RMSDP=1.27D-05 MaxDP=9.68D-05 DE=-9.73D-06 OVMax= 0.00D+00

 Cycle   5  Pass 1  IDiag  3:
 E=-0.554533382077977E-01 Delta-E=       -0.000000128493 Rises=F Damp=F
 DIIS: error= 6.73D-06 at cycle   5 NSaved=   5.
 NSaved= 5 IEnMin= 5 EnMin=-0.554533382077977E-01 IErMin= 5 ErrMin= 6.73D-06
 ErrMax= 6.73D-06 EMaxC= 1.00D-01 BMatC= 2.09D-09 BMatP= 2.50D-08
 IDIUse=1 WtCom= 1.00D+00 WtEn= 0.00D+00
 Coeff-Com:  0.436D-01-0.130D+00 0.317D+00-0.950D+00 0.172D+01
 Coeff:      0.436D-01-0.130D+00 0.317D+00-0.950D+00 0.172D+01
 Gap=     0.556 Goal=   None    Shift=    0.000
 RMSDP=4.76D-06 MaxDP=4.21D-05 DE=-1.28D-07 OVMax= 0.00D+00

 Cycle   6  Pass 1  IDiag  3:
 E=-0.554533516528011E-01 Delta-E=       -0.000000013445 Rises=F Damp=F
 DIIS: error= 1.72D-06 at cycle   6 NSaved=   6.
 NSaved= 6 IEnMin= 6 EnMin=-0.554533516528011E-01 IErMin= 6 ErrMin= 1.72D-06
 ErrMax= 1.72D-06 EMaxC= 1.00D-01 BMatC= 1.27D-10 BMatP= 2.09D-09
 IDIUse=1 WtCom= 1.00D+00 WtEn= 0.00D+00
 Coeff-Com: -0.223D-01 0.664D-01-0.162D+00 0.504D+00-0.107D+01 0.168D+01
 Coeff:     -0.223D-01 0.664D-01-0.162D+00 0.504D+00-0.107D+01 0.168D+01
 Gap=     0.556 Goal=   None    Shift=    0.000
 RMSDP=1.24D-06 MaxDP=1.27D-05 DE=-1.34D-08 OVMax= 0.00D+00

 Cycle   7  Pass 1  IDiag  3:
 E=-0.554533525055376E-01 Delta-E=       -0.000000000853 Rises=F Damp=F
 DIIS: error= 3.13D-07 at cycle   7 NSaved=   7.
 NSaved= 7 IEnMin= 7 EnMin=-0.554533525055376E-01 IErMin= 7 ErrMin= 3.13D-07
 ErrMax= 3.13D-07 EMaxC= 1.00D-01 BMatC= 6.94D-12 BMatP= 1.27D-10
 IDIUse=1 WtCom= 1.00D+00 WtEn= 0.00D+00
 Coeff-Com:  0.725D-02-0.216D-01 0.528D-01-0.166D+00 0.369D+00-0.752D+00
 Coeff-Com:  0.151D+01
 Coeff:      0.725D-02-0.216D-01 0.528D-01-0.166D+00 0.369D+00-0.752D+00
 Coeff:      0.151D+01
 Gap=     0.556 Goal=   None    Shift=    0.000
 RMSDP=2.81D-07 MaxDP=2.89D-06 DE=-8.53D-10 OVMax= 0.00D+00

 Cycle   8  Pass 1  IDiag  3:
 E=-0.554533525504723E-01 Delta-E=       -0.000000000045 Rises=F Damp=F
 DIIS: error= 6.90D-08 at cycle   8 NSaved=   8.
 NSaved= 8 IEnMin= 8 EnMin=-0.554533525504723E-01 IErMin= 8 ErrMin= 6.90D-08
 ErrMax= 6.90D-08 EMaxC= 1.00D-01 BMatC= 3.35D-13 BMatP= 6.94D-12
 IDIUse=1 WtCom= 1.00D+00 WtEn= 0.00D+00
 Coeff-Com: -0.110D-02 0.326D-02-0.798D-02 0.254D-01-0.591D-01 0.142D+00
 Coeff-Com: -0.486D+00 0.138D+01
 Coeff:     -0.110D-02 0.326D-02-0.798D-02 0.254D-01-0.591D-01 0.142D+00
 Coeff:     -0.486D+00 0.138D+01
 Gap=     0.556 Goal=   None    Shift=    0.000
 RMSDP=6.04D-08 MaxDP=6.13D-07 DE=-4.49D-11 OVMax= 0.00D+00

 Cycle   9  Pass 1  IDiag  3:
 E=-0.554533525526608E-01 Delta-E=       -0.000000000002 Rises=F Damp=F
 DIIS: error= 1.62D-08 at cycle   9 NSaved=   9.
 NSaved= 9 IEnMin= 9 EnMin=-0.554533525526608E-01 IErMin= 9 ErrMin= 1.62D-08
 ErrMax= 1.62D-08 EMaxC= 1.00D-01 BMatC= 2.38D-14 BMatP= 3.35D-13
 IDIUse=1 WtCom= 1.00D+00 WtEn= 0.00D+00
 Coeff-Com:  0.164D-03-0.484D-03 0.118D-02-0.394D-02 0.101D-01-0.321D-01
 Coeff-Com:  0.170D+00-0.696D+00 0.155D+01
 Coeff:      0.164D-03-0.484D-03 0.118D-02-0.394D-02 0.101D-01-0.321D-01
 Coeff:      0.170D+00-0.696D+00 0.155D+01
 Gap=     0.556 Goal=   None    Shift=    0.000
 RMSDP=1.54D-08 MaxDP=1.37D-07 DE=-2.19D-12 OVMax= 0.00D+00

 Cycle  10  Pass 1  IDiag  3:
 E=-0.554533525526892E-01 Delta-E=        0.000000000000 Rises=F Damp=F
 DIIS: error= 8.43D-09 at cycle  10 NSaved=  10.
 NSaved=10 IEnMin=10 EnMin=-0.554533525526892E-01 IErMin=10 ErrMin= 8.43D-09
 ErrMax= 8.43D-09 EMaxC= 1.00D-01 BMatC= 3.40D-15 BMatP= 2.38D-14
 IDIUse=1 WtCom= 1.00D+00 WtEn= 0.00D+00
 Coeff-Com: -0.417D-04 0.122D-03-0.298D-03 0.109D-02-0.330D-02 0.139D-01
 Coeff-Com: -0.960D-01 0.444D+00-0.126D+01 0.190D+01
 Coeff:     -0.417D-04 0.122D-03-0.298D-03 0.109D-02-0.330D-02 0.139D-01
 Coeff:     -0.960D-01 0.444D+00-0.126D+01 0.190D+01
 Gap=     0.556 Goal=   None    Shift=    0.000
 RMSDP=7.55D-09 MaxDP=7.44D-08 DE=-2.84D-14 OVMax= 0.00D+00

 Cycle  11  Pass 2  IDiag  1:
 RMSDP=7.55D-09 MaxDP=7.44D-08 DE=-2.84D-14 OVMax= 0.00D+00

 SCF Done:  E(RPM6) = -0.554533525527E-01 A.U. after   11 cycles
             Convg  =    0.7553D-08             -V/T =  0.9990
 KE=-5.625586324764D+01 PE=-2.583214280652D+02 EE= 1.458042424156D+02
 Leave Link  502 at Mon Sep 14 19:12:40 2015, MaxMem=  402653184 cpu:       1.5
 (Enter /share/apps/g09/l701.exe)
 Compute integral first derivatives.
 ... and contract with generalized density number  0.
 Leave Link  701 at Mon Sep 14 19:12:40 2015, MaxMem=  402653184 cpu:       0.1
 (Enter /share/apps/g09/l702.exe)
 L702 exits ... SP integral derivatives will be done elsewhere.
 Leave Link  702 at Mon Sep 14 19:12:40 2015, MaxMem=  402653184 cpu:       0.0
 (Enter /share/apps/g09/l703.exe)
 Compute integral first derivatives, UseDBF=F ICtDFT=           0.
 Integral derivatives from FoFDir, PRISM(SPDF).
 Calling FoFJK, ICntrl=      2127 FMM=F ISym2X=0 I1Cent= 0 IOpClX= 0 NMat=1 NMatS=1 NMatT=0.
 FoFCou: FMM=F IPFlag=           0 FMFlag=      100000 FMFlg1=         800
         NFxFlg=           0 DoJE=F BraDBF=F KetDBF=F FulRan=T
         Omega=  0.000000  0.000000  1.000000  0.000000  0.000000 ICntrl=    2127 IOpCl=  0
         NMat0=    1 NMatS0=    1 NMatT0=    0 NMatD0=    1 NMtDS0=    0 NMtDT0=    0
         I1Cent=           0 NGrid=           0.
 Symmetry not used in FoFCou.
 Leave Link  703 at Mon Sep 14 19:12:44 2015, MaxMem=  402653184 cpu:       0.0
 (Enter /share/apps/g09/l716.exe)
 Dipole        = 3.56474028D-03 9.00647471D-03-2.45127496D-02
 ***** Axes restored to original set *****
 -------------------------------------------------------------------
 Center     Atomic                   Forces (Hartrees/Bohr)
 Number     Number              X              Y              Z
 -------------------------------------------------------------------
      1        6          -0.001228018   -0.000479784    0.000815349
      2        1          -0.000854277    0.000612385    0.000083487
      3        1          -0.000331921   -0.001192790   -0.000311546
      4        1           0.000897056    0.000638420   -0.001229974
      5        6          -0.003044997   -0.001629379    0.002933752
      6        1           0.000132432   -0.001113938    0.000243523
      7        1          -0.000433698    0.000486108    0.000821809
      8        6           0.003558953   -0.001584870    0.001722885
      9        1          -0.000141087   -0.000273623   -0.000290208
     10        6           0.000354462    0.005849147   -0.001410338
     11        1          -0.000293434    0.000324479   -0.001428179
     12        1          -0.000661474    0.001322982    0.000259359
     13        6          -0.001053445    0.000565960    0.000316536
     14        1           0.000024350    0.000554373    0.000938826
     15        1           0.000902755   -0.001213402    0.000435828
     16        1          -0.000286333    0.000106696   -0.001339202
     17        6           0.002488191   -0.002390330   -0.001135725
     18        1          -0.000072240    0.000766287   -0.001135006
     19        1           0.000962841   -0.000753507    0.000147910
     20        1          -0.000920114   -0.000595214   -0.000439088
 -------------------------------------------------------------------
 Cartesian Forces:  Max     0.005849147 RMS     0.001384613
 Leave Link  716 at Mon Sep 14 19:12:46 2015, MaxMem=  402653184 cpu:       0.1
 (Enter /share/apps/g09/l103.exe)

 GradGradGradGradGradGradGradGradGradGradGradGradGradGradGradGradGradGrad
 Berny optimization.
 Using GEDIIS/GDIIS optimizer.
 Internal  Forces:  Max     0.007846673 RMS     0.001259831
 Search for a local minimum.
 Step number   2 out of a maximum of  110
 All quantities printed in internal units (Hartrees-Bohrs-Radians)
 RMS Force = .12598D-02 SwitMx=.10000D-02 MixMth= 1
 Mixed Optimization -- RFO/linear search
 Update second derivatives using D2CorX and points    1    2
 DE= -2.71D-03 DEPred=-2.88D-03 R= 9.42D-01
 SS=  1.41D+00  RLast= 2.11D-01 DXNew= 5.0454D-01 6.3448D-01
 Trust test= 9.42D-01 RLast= 2.11D-01 DXMaxT set to 5.05D-01
 Use linear search instead of GDIIS.
     Eigenvalues ---    0.00230   0.00230   0.00256   0.00360   0.00378
     Eigenvalues ---    0.03307   0.03455   0.03695   0.04655   0.04712
     Eigenvalues ---    0.04768   0.04813   0.05396   0.05433   0.05451
     Eigenvalues ---    0.05470   0.05534   0.05549   0.08491   0.08665
     Eigenvalues ---    0.12226   0.12407   0.14602   0.16000   0.16000
     Eigenvalues ---    0.16000   0.16000   0.16000   0.16000   0.16000
     Eigenvalues ---    0.16044   0.16771   0.16880   0.21250   0.22021
     Eigenvalues ---    0.26656   0.27902   0.28548   0.29340   0.29488
     Eigenvalues ---    0.31944   0.32062   0.32068   0.32074   0.32112
     Eigenvalues ---    0.32195   0.32207   0.32214   0.32224   0.32269
     Eigenvalues ---    0.32298   0.32310   0.32320   0.373161000.00000
     Eigenvalues --- 1000.000001000.000001000.000001000.000001000.00000
     Eigenvalues --- 1000.000001000.000001000.000001000.000001000.00000
     Eigenvalues --- 1000.000001000.000001000.000001000.000001000.00000
     Eigenvalues --- 1000.000001000.000001000.000001000.000001000.00000
     Eigenvalues --- 1000.000001000.000001000.000001000.000001000.00000
     Eigenvalues --- 1000.000001000.000001000.000001000.000001000.00000
     Eigenvalues --- 1000.000001000.000001000.000001000.000001000.00000
     Eigenvalues --- 1000.000001000.000001000.000001000.000001000.00000
     Eigenvalues --- 1000.000001000.000001000.000001000.000001000.00000
 RFO step:  Lambda=-7.16611550D-04 EMin= 2.29799785D-03
 Quartic linear search produced a step of -0.03382.
 Iteration  1 RMS(Cart)=  0.02606556 RMS(Int)=  0.00020526
 Iteration  2 RMS(Cart)=  0.00027042 RMS(Int)=  0.00000941
 Iteration  3 RMS(Cart)=  0.00000003 RMS(Int)=  0.00000941
 Variable       Old X    -DE/DX   Delta X   Delta X   Delta X     New X
                                 (Linear)    (Quad)   (Total)
    R1        2.07288  -0.00064   0.00101  -0.00675  -0.00574   2.06713
    R2        2.07298  -0.00083   0.00102  -0.00737  -0.00635   2.06662
    R3        2.07599  -0.00154   0.00096  -0.00924  -0.00828   2.06771
    R4        2.88424   0.00162   0.00028   0.00396   0.00424   2.88849
    R5        2.09641  -0.00050   0.00037  -0.00327  -0.00291   2.09350
    R6        2.09552  -0.00020   0.00040  -0.00252  -0.00212   2.09339
    R7        2.90714   0.00644   0.00057   0.01951   0.02008   2.92722
    R8        2.12002  -0.00033  -0.00037   0.00077   0.00040   2.12043
    R9        2.89818   0.00785   0.00085   0.02301   0.02386   2.92204
   R10        2.89006   0.00452   0.00059   0.01238   0.01296   2.90302
   R11        2.09660  -0.00063   0.00036  -0.00362  -0.00326   2.09334
   R12        2.09289   0.00006   0.00045  -0.00201  -0.00155   2.09134
   R13        2.88959  -0.00042   0.00001  -0.00142  -0.00141   2.88818
   R14        2.07337  -0.00093   0.00099  -0.00752  -0.00653   2.06684
   R15        2.07556  -0.00146   0.00098  -0.00910  -0.00811   2.06744
   R16        2.07396  -0.00122   0.00103  -0.00862  -0.00759   2.06637
   R17        2.07337  -0.00112   0.00107  -0.00848  -0.00742   2.06595
   R18        2.07212  -0.00067   0.00108  -0.00717  -0.00610   2.06602
   R19        2.07313  -0.00088   0.00101  -0.00749  -0.00648   2.06665
    A1        1.88395  -0.00103   0.00082  -0.01062  -0.00980   1.87415
    A2        1.88028  -0.00067   0.00032  -0.00565  -0.00534   1.87494
    A3        1.94077   0.00080  -0.00017   0.00537   0.00518   1.94596
    A4        1.87962  -0.00075   0.00030  -0.00555  -0.00527   1.87435
    A5        1.94308   0.00104  -0.00033   0.00786   0.00751   1.95059
    A6        1.93354   0.00048  -0.00090   0.00742   0.00650   1.94004
    A7        1.90485  -0.00022  -0.00070   0.00390   0.00319   1.90804
    A8        1.90331  -0.00029  -0.00057   0.00154   0.00097   1.90429
[...]
 ! D10   D(1,5,8,9)            177.9178         -DE/DX =    0.0                 !
 ! D11   D(1,5,8,10)            60.2788         -DE/DX =    0.0                 !
 ! D12   D(1,5,8,17)           -64.5945         -DE/DX =    0.0                 !
 ! D13   D(6,5,8,9)             55.0813         -DE/DX =    0.0                 !
 ! D14   D(6,5,8,10)           -62.5578         -DE/DX =    0.0                 !
 ! D15   D(6,5,8,17)           172.5689         -DE/DX =    0.0                 !
 ! D16   D(7,5,8,9)            -59.5968         -DE/DX =    0.0                 !
 ! D17   D(7,5,8,10)          -177.2359         -DE/DX =    0.0                 !
 ! D18   D(7,5,8,17)            57.8908         -DE/DX =    0.0                 !
 ! D19   D(5,8,10,11)           39.8208         -DE/DX =    0.0                 !
 ! D20   D(5,8,10,12)          -75.7979         -DE/DX =    0.0                 !
 ! D21   D(5,8,10,13)          161.6407         -DE/DX =    0.0                 !
 ! D22   D(9,8,10,11)          -77.1453         -DE/DX =    0.0                 !
 ! D23   D(9,8,10,12)          167.236          -DE/DX =    0.0                 !
 ! D24   D(9,8,10,13)           44.6746         -DE/DX =    0.0                 !
 ! D25   D(17,8,10,11)         164.6364         -DE/DX =    0.0                 !
 ! D26   D(17,8,10,12)          49.0177         -DE/DX =    0.0                 !
 ! D27   D(17,8,10,13)         -73.5437         -DE/DX =    0.0                 !
 ! D28   D(5,8,17,18)          -55.6981         -DE/DX =    0.0                 !
 ! D29   D(5,8,17,19)           64.3902         -DE/DX =    0.0                 !
 ! D30   D(5,8,17,20)         -175.7679         -DE/DX =    0.0                 !
 ! D31   D(9,8,17,18)           61.2226         -DE/DX =    0.0                 !
 ! D32   D(9,8,17,19)         -178.6891         -DE/DX =    0.0                 !
 ! D33   D(9,8,17,20)          -58.8472         -DE/DX =    0.0                 !
 ! D34   D(10,8,17,18)         179.545          -DE/DX =    0.0                 !
 ! D35   D(10,8,17,19)         -60.3666         -DE/DX =    0.0                 !
 ! D36   D(10,8,17,20)          59.4752         -DE/DX =    0.0                 !
 ! D37   D(8,10,13,14)          60.2534         -DE/DX =    0.0                 !
 ! D38   D(8,10,13,15)        -179.908          -DE/DX =    0.0                 !
 ! D39   D(8,10,13,16)         -59.9263         -DE/DX =    0.0                 !
 ! D40   D(11,10,13,14)       -177.8544         -DE/DX =    0.0                 !
 ! D41   D(11,10,13,15)        -58.0158         -DE/DX =    0.0                 !
 ! D42   D(11,10,13,16)         61.9659         -DE/DX =    0.0                 !
 ! D43   D(12,10,13,14)        -62.3218         -DE/DX =    0.0                 !
 ! D44   D(12,10,13,15)         57.5168         -DE/DX =    0.0                 !
 ! D45   D(12,10,13,16)        177.4986         -DE/DX =    0.0                 !
 --------------------------------------------------------------------------------
 GradGradGradGradGradGradGradGradGradGradGradGradGradGradGradGradGradGrad

 Largest change from initial coordinates is atom   14       0.169 Angstoms.
 Leave Link  103 at Mon Sep 14 19:15:05 2015, MaxMem=  402653184 cpu:       0.0
 (Enter /share/apps/g09/l202.exe)
                          Input orientation:                          
 ---------------------------------------------------------------------
 Center     Atomic      Atomic             Coordinates (Angstroms)
 Number     Number       Type             X           Y           Z
 ---------------------------------------------------------------------
      1          6           0       -2.487033   -0.624090   -0.460515
      2          1           0       -2.241169   -1.264753   -1.315273
      3          1           0       -2.831313    0.336017   -0.860275
      4          1           0       -3.331634   -1.084087    0.064116
      5          6           0       -1.290301   -0.451582    0.471206
      6          1           0       -1.578862    0.194445    1.323640
      7          1           0       -1.028982   -1.432599    0.915273
      8          6           0       -0.031527    0.138806   -0.203901
      9          1           0        0.746449    0.245393    0.595117
     10          6           0       -0.314550    1.540983   -0.783652
     11          1           0       -0.958200    2.107424   -0.082630
     12          1           0       -0.899008    1.448647   -1.719034
     13          6           0        0.963639    2.333186   -1.049611
     14          1           0        1.611871    1.821649   -1.770358
     15          1           0        0.736004    3.323696   -1.458567
     16          1           0        1.545720    2.481365   -0.133275
     17          6           0        0.522636   -0.808387   -1.274814
     18          1           0        0.730630   -1.800246   -0.861070
     19          1           0       -0.183225   -0.939132   -2.102200
     20          1           0        1.455755   -0.422735   -1.699076
 ---------------------------------------------------------------------
                    Distance matrix (angstroms):
                    1          2          3          4          5
     1  C    0.000000
     2  H    1.096134   0.000000
     3  H    1.095510   1.765718   0.000000
     4  H    1.095530   1.767616   1.766781   0.000000
     5  C    1.526444   2.181033   2.183546   2.175506   0.000000
     6  H    2.162865   3.087357   2.521539   2.508636   1.107819
     7  H    2.161572   2.544190   3.086903   2.479543   1.108096
     8  C    2.584061   2.843878   2.882450   3.529590   1.545587
     9  H    3.510807   3.854347   3.863516   4.322064   2.156265
    10  C    3.084095   3.444798   2.791400   4.088093   2.548936
    11  H    3.152982   3.812741   2.692799   3.980009   2.639230
    12  H    2.898608   3.054007   2.389397   3.938532   2.925941
    13  C    4.582538   4.825612   4.292574   5.600671   3.892051
    14  H    4.949579   4.957710   4.772550   6.020534   4.314485
    15  H    5.193177   5.471559   4.691474   6.188117   4.699218
    16  H    5.100396   5.456285   4.928435   6.044833   4.124390
    17  C    3.123325   2.801522   3.567980   4.089516   2.542172
    18  H    3.449223   3.053627   4.153439   4.227391   2.770923
    19  H    2.846386   2.227199   3.190729   3.824450   2.843543
    20  H    4.137651   3.810977   4.433762   5.144446   3.500254
                    6          7          8          9         10
     6  H    0.000000
     7  H    1.765334   0.000000
     8  C    2.175022   2.171815   0.000000
     9  H    2.437296   2.463800   1.120284   0.000000
    10  C    2.802201   3.498421   1.543474   2.169164   0.000000
    11  H    2.454039   3.678666   2.179194   2.613872   1.107508
    12  H    3.360519   3.906154   2.182621   3.083932   1.106822
    13  C    4.082994   4.691742   2.553602   2.666679   1.527117
    14  H    4.733010   4.977634   2.826040   2.971364   2.182535
    15  H    4.784505   5.601127   3.508107   3.700496   2.176520
    16  H    4.137103   4.800798   2.824939   2.483739   2.183556
    17  C    3.489116   2.755656   1.533338   2.158051   2.541979
    18  H    3.753065   2.527210   2.184646   2.511049   3.501743
    19  H    3.869002   3.172374   2.188264   3.089160   2.811900
    20  H    4.327427   3.745472   2.182403   2.492555   2.797886
                   11         12         13         14         15
    11  H    0.000000
    12  H    1.765024   0.000000
    13  C    2.163212   2.167946   0.000000
    14  H    3.087937   2.538952   1.096062   0.000000
    15  H    2.498569   2.501383   1.095524   1.766495   0.000000
    16  H    2.532196   3.091575   1.095649   1.766251   1.766794
    17  C    3.480824   2.704183   3.180359   2.889478   4.141666
    18  H    4.327586   3.734584   4.144285   3.836862   5.158663
    19  H    3.736409   2.522032   3.623714   3.309743   4.408055
    20  H    3.852503   3.007885   2.873862   2.250936   3.822516
                   16         17         18         19         20
    16  H    0.000000
    17  C    3.629364   0.000000
    18  H    4.418852   1.094636   0.000000
    19  H    4.308795   1.095400   1.765517   0.000000
    20  H    3.300549   1.095188   1.767936   1.765057   0.000000
 Stoichiometry    C6H14
 Framework group  C1[X(C6H14)]
 Deg. of freedom    54
 Full point group                 C1      NOp   1
 Largest Abelian subgroup         C1      NOp   1
 Largest concise Abelian subgroup C1      NOp   1
                         Standard orientation:                         
 ---------------------------------------------------------------------
 Center     Atomic      Atomic             Coordinates (Angstroms)
 Number     Number       Type             X           Y           Z
 ---------------------------------------------------------------------
      1          6           0        2.119935   -0.611814   -0.540273
      2          1           0        2.196568    0.230282   -1.237776
      3          1           0        1.615916   -1.428610   -1.068430
      4          1           0        3.138381   -0.945595   -0.313239
      5          6           0        1.375063   -0.217453    0.732392
      6          1           0        1.323993   -1.089934    1.413151
      7          1           0        1.960952    0.550688    1.275136
      8          6           0       -0.054187    0.322170    0.498108
      9          1           0       -0.491797    0.533150    1.507575
     10          6           0       -0.942453   -0.732442   -0.195499
     11          1           0       -0.725423   -1.733187    0.226380
     12          1           0       -0.679568   -0.796283   -1.268752
     13          6           0       -2.432321   -0.432466   -0.045851
     14          1           0       -2.694382    0.536152   -0.486820
     15          1           0       -3.040372   -1.195165   -0.544585
     16          1           0       -2.735881   -0.406021    1.006575
     17          6           0       -0.030976    1.638716   -0.287573
     18          1           0        0.592738    2.388724    0.209114
     19          1           0        0.366607    1.498336   -1.298574
     20          1           0       -1.038101    2.057203   -0.387589
 ---------------------------------------------------------------------
 Rotational constants (GHZ):      5.1520769      2.1358336      1.8164145
 Leave Link  202 at Mon Sep 14 19:15:07 2015, MaxMem=  402653184 cpu:       0.0
 (Enter /share/apps/g09/l601.exe)
 Copying SCF densities to generalized density rwf, IOpCl= 0 IROHF=0.

 **********************************************************************

            Population analysis using the SCF density.

 **********************************************************************

 Orbital symmetries:
       Occupied  (A) (A) (A) (A) (A) (A) (A) (A) (A) (A) (A) (A)
                 (A) (A) (A) (A) (A) (A) (A)
       Virtual   (A) (A) (A) (A) (A) (A) (A) (A) (A) (A) (A) (A)
                 (A) (A) (A) (A) (A) (A) (A)
 The electronic state is 1-A.
 Alpha  occ. eigenvalues --   -1.06466  -0.97227  -0.91588  -0.83476  -0.78105
 Alpha  occ. eigenvalues --   -0.68325  -0.58067  -0.56160  -0.55501  -0.52572
 Alpha  occ. eigenvalues --   -0.48764  -0.48322  -0.47738  -0.46559  -0.45404
 Alpha  occ. eigenvalues --   -0.42533  -0.40809  -0.40687  -0.40184
 Alpha virt. eigenvalues --    0.15455   0.16218   0.16540   0.17748   0.18484
 Alpha virt. eigenvalues --    0.21223   0.21395   0.21956   0.22135   0.22549
 Alpha virt. eigenvalues --    0.22682   0.23105   0.23344   0.23606   0.24357
 Alpha virt. eigenvalues --    0.24887   0.25619   0.25875   0.26483
          Condensed to atoms (all electrons):
              1          2          3          4          5          6
     1  C    4.449734   0.000000   0.000000   0.000000   0.000000   0.000000
     2  H    0.000000   0.853461   0.000000   0.000000   0.000000   0.000000
     3  H    0.000000   0.000000   0.855495   0.000000   0.000000   0.000000
     4  H    0.000000   0.000000   0.000000   0.860619   0.000000   0.000000
     5  C    0.000000   0.000000   0.000000   0.000000   4.261560   0.000000
     6  H    0.000000   0.000000   0.000000   0.000000   0.000000   0.873671
     7  H    0.000000   0.000000   0.000000   0.000000   0.000000   0.000000
     8  C    0.000000   0.000000   0.000000   0.000000   0.000000   0.000000
     9  H    0.000000   0.000000   0.000000   0.000000   0.000000   0.000000
    10  C    0.000000   0.000000   0.000000   0.000000   0.000000   0.000000
    11  H    0.000000   0.000000   0.000000   0.000000   0.000000   0.000000
    12  H    0.000000   0.000000   0.000000   0.000000   0.000000   0.000000
    13  C    0.000000   0.000000   0.000000   0.000000   0.000000   0.000000
    14  H    0.000000   0.000000   0.000000   0.000000   0.000000   0.000000
    15  H    0.000000   0.000000   0.000000   0.000000   0.000000   0.000000
    16  H    0.000000   0.000000   0.000000   0.000000   0.000000   0.000000
    17  C    0.000000   0.000000   0.000000   0.000000   0.000000   0.000000
    18  H    0.000000   0.000000   0.000000   0.000000   0.000000   0.000000
    19  H    0.000000   0.000000   0.000000   0.000000   0.000000   0.000000
    20  H    0.000000   0.000000   0.000000   0.000000   0.000000   0.000000
              7          8          9         10         11         12
     1  C    0.000000   0.000000   0.000000   0.000000   0.000000   0.000000
     2  H    0.000000   0.000000   0.000000   0.000000   0.000000   0.000000
     3  H    0.000000   0.000000   0.000000   0.000000   0.000000   0.000000
     4  H    0.000000   0.000000   0.000000   0.000000   0.000000   0.000000
     5  C    0.000000   0.000000   0.000000   0.000000   0.000000   0.000000
     6  H    0.000000   0.000000   0.000000   0.000000   0.000000   0.000000
     7  H    0.871657   0.000000   0.000000   0.000000   0.000000   0.000000
     8  C    0.000000   4.019313   0.000000   0.000000   0.000000   0.000000
     9  H    0.000000   0.000000   0.889121   0.000000   0.000000   0.000000
    10  C    0.000000   0.000000   0.000000   4.253861   0.000000   0.000000
    11  H    0.000000   0.000000   0.000000   0.000000   0.871761   0.000000
    12  H    0.000000   0.000000   0.000000   0.000000   0.000000   0.867673
    13  C    0.000000   0.000000   0.000000   0.000000   0.000000   0.000000
    14  H    0.000000   0.000000   0.000000   0.000000   0.000000   0.000000
    15  H    0.000000   0.000000   0.000000   0.000000   0.000000   0.000000
    16  H    0.000000   0.000000   0.000000   0.000000   0.000000   0.000000
    17  C    0.000000   0.000000   0.000000   0.000000   0.000000   0.000000
    18  H    0.000000   0.000000   0.000000   0.000000   0.000000   0.000000
    19  H    0.000000   0.000000   0.000000   0.000000   0.000000   0.000000
    20  H    0.000000   0.000000   0.000000   0.000000   0.000000   0.000000
             13         14         15         16         17         18
     1  C    0.000000   0.000000   0.000000   0.000000   0.000000   0.000000
     2  H    0.000000   0.000000   0.000000   0.000000   0.000000   0.000000
     3  H    0.000000   0.000000   0.000000   0.000000   0.000000   0.000000
     4  H    0.000000   0.000000   0.000000   0.000000   0.000000   0.000000
     5  C    0.000000   0.000000   0.000000   0.000000   0.000000   0.000000
     6  H    0.000000   0.000000   0.000000   0.000000   0.000000   0.000000
     7  H    0.000000   0.000000   0.000000   0.000000   0.000000   0.000000
     8  C    0.000000   0.000000   0.000000   0.000000   0.000000   0.000000
     9  H    0.000000   0.000000   0.000000   0.000000   0.000000   0.000000
    10  C    0.000000   0.000000   0.000000   0.000000   0.000000   0.000000
    11  H    0.000000   0.000000   0.000000   0.000000   0.000000   0.000000
    12  H    0.000000   0.000000   0.000000   0.000000   0.000000   0.000000
    13  C    4.458750   0.000000   0.000000   0.000000   0.000000   0.000000
    14  H    0.000000   0.853847   0.000000   0.000000   0.000000   0.000000
    15  H    0.000000   0.000000   0.858170   0.000000   0.000000   0.000000
    16  H    0.000000   0.000000   0.000000   0.855982   0.000000   0.000000
    17  C    0.000000   0.000000   0.000000   0.000000   4.487239   0.000000
    18  H    0.000000   0.000000   0.000000   0.000000   0.000000   0.855028
    19  H    0.000000   0.000000   0.000000   0.000000   0.000000   0.000000
    20  H    0.000000   0.000000   0.000000   0.000000   0.000000   0.000000
             19         20
     1  C    0.000000   0.000000
     2  H    0.000000   0.000000
     3  H    0.000000   0.000000
     4  H    0.000000   0.000000
     5  C    0.000000   0.000000
     6  H    0.000000   0.000000
     7  H    0.000000   0.000000
     8  C    0.000000   0.000000
     9  H    0.000000   0.000000
    10  C    0.000000   0.000000
    11  H    0.000000   0.000000
    12  H    0.000000   0.000000
    13  C    0.000000   0.000000
    14  H    0.000000   0.000000
    15  H    0.000000   0.000000
    16  H    0.000000   0.000000
    17  C    0.000000   0.000000
    18  H    0.000000   0.000000
    19  H    0.849787   0.000000
    20  H    0.000000   0.853273
 Mulliken atomic charges:
              1
     1  C   -0.449734
     2  H    0.146539
     3  H    0.144505
     4  H    0.139381
     5  C   -0.261560
     6  H    0.126329
     7  H    0.128343
     8  C   -0.019313
     9  H    0.110879
    10  C   -0.253861
    11  H    0.128239
    12  H    0.132327
    13  C   -0.458750
    14  H    0.146153
    15  H    0.141830
    16  H    0.144018
    17  C   -0.487239
    18  H    0.144972
    19  H    0.150213
    20  H    0.146727
 Sum of Mulliken atomic charges =   0.00000
 Mulliken charges with hydrogens summed into heavy atoms:
              1
     1  C   -0.019309
     5  C   -0.006888
     8  C    0.091566
    10  C    0.006706
    13  C   -0.026748
    17  C   -0.045327
 Sum of Mulliken charges with hydrogens summed into heavy atoms =   0.00000
 Charge=              0.0000 electrons
 Dipole moment (field-independent basis, Debye):
    X=              0.0034    Y=              0.0308    Z=             -0.0647  Tot=              0.0717
 N-N= 1.683648564061D+02 E-N=-2.576250146886D+02  KE=-5.624648590637D+01
 Leave Link  601 at Mon Sep 14 19:15:07 2015, MaxMem=  402653184 cpu:       0.0
 (Enter /share/apps/g09/l9999.exe)
 1\1\GINC-COMPUTE-0-7\FOpt\RPM6\ZDO\C6H14\HETANJIN\14-Sep-2015\0\\#p PM
 6 opt\\using PM6 to do opt and freq calc.\\0,1\C,-2.4870329521,-0.6240
 899744,-0.4605153807\H,-2.2411685347,-1.2647534127,-1.3152727284\H,-2.
 8313132326,0.336016802,-0.860274704\H,-3.3316339199,-1.084087469,0.064
 1158877\C,-1.2903008104,-0.451581788,0.471205898\H,-1.5788616756,0.194
 4449026,1.3236401059\H,-1.0289819767,-1.4325989588,0.9152726574\C,-0.0
 315272538,0.1388061467,-0.203901189\H,0.7464487817,0.2453934347,0.5951
 166273\C,-0.314549978,1.5409828528,-0.7836524544\H,-0.9582000579,2.107
 4240568,-0.0826299883\H,-0.8990078736,1.4486465577,-1.7190341056\C,0.9
 636386678,2.3331862581,-1.0496108594\H,1.6118706519,1.8216487227,-1.77
 03578224\H,0.7360036721,3.3236960209,-1.4585665908\H,1.5457204587,2.48
 13651904,-0.1332752158\C,0.5226362711,-0.8083869238,-1.2748140855\H,0.
 730629743,-1.800245588,-0.8610702067\H,-0.1832247272,-0.9391318734,-2.
 1021995755\H,1.4557547463,-0.4227349574,-1.6990762699\\Version=EM64L-G
 09RevA.01\State=1-A\HF=-0.055777\RMSD=7.036e-09\RMSF=2.928e-06\Dipole=
 -0.0018102,-0.0087773,-0.0267625\PG=C01 [X(C6H14)]\\@


 YOU WILL NEVER "FIND" TIME FOR ANYTHING.
 IF YOU WANT TIME, YOU MUST MAKE IT.

                        -- CHARLES BIXTON
 Job cpu time:  0 days  0 hours  0 minutes 26.0 seconds.
 File lengths (MBytes):  RWF=      5 Int=      0 D2E=      0 Chk=      3 Scr=      1
 Normal termination of Gaussian 09 at Mon Sep 14 19:15:09 2015.
