 Entering Gaussian System, Link 0=/share/apps/g09/g09
 Input=C6H14_3_02_1_opt_B3L.gjf
 Output=C6H14_3_02_1_opt_B3L.log
 Initial command:
 /share/apps/g09/l1.exe /state/partition1/Gau-801.inp -scrdir=/state/partition1/
 Entering Link 1 = /share/apps/g09/l1.exe PID=       802.
  
 Copyright (c) 1988,1990,1992,1993,1995,1998,2003,2009, Gaussian, Inc.
                  All Rights Reserved.
  
 This is part of the Gaussian(R) 09 program.  It is based on
 the Gaussian(R) 03 system (copyright 2003, Gaussian, Inc.),
 the Gaussian(R) 98 system (copyright 1998, Gaussian, Inc.),
 the Gaussian(R) 94 system (copyright 1995, Gaussian, Inc.),
 the Gaussian 92(TM) system (copyright 1992, Gaussian, Inc.),
 the Gaussian 90(TM) system (copyright 1990, Gaussian, Inc.),
 the Gaussian 88(TM) system (copyright 1988, Gaussian, Inc.),
 the Gaussian 86(TM) system (copyright 1986, Carnegie Mellon
 University), and the Gaussian 82(TM) system (copyright 1983,
 Carnegie Mellon University). Gaussian is a federally registered
 trademark of Gaussian, Inc.
  
 This software contains proprietary and confidential information,
 including trade secrets, belonging to Gaussian, Inc.
  
 This software is provided under written license and may be
 used, copied, transmitted, or stored only in accord with that
 written license.
  
 The following legend is applicable only to US Government
 contracts under FAR:
  
                    RESTRICTED RIGHTS LEGEND
  
 Use, reproduction and disclosure by the US Government is
 subject to restrictions as set forth in subparagraphs (a)
 and (c) of the Commercial Computer Software - Restricted
 Rights clause in FAR 52.227-19.
  
 Gaussian, Inc.
 340 Quinnipiac St., Bldg. 40, Wallingford CT 06492
  
  
 ---------------------------------------------------------------
 Warning -- This program may not be used in any manner that
 competes with the business of Gaussian, Inc. or will provide
 assistance to any competitor of Gaussian, Inc.  The licensee
 of this program is prohibited from giving any competitor of
 Gaussian, Inc. access to this program.  By using this program,
 the user acknowledges that Gaussian, Inc. is engaged in the
 business of creating and licensing software in the field of
 computational chemistry and represents and warrants to the
 licensee that it is not a competitor of Gaussian, Inc. and that
 it will not use this program in any manner prohibited above.
 ---------------------------------------------------------------
  

 Cite this work as:
 Gaussian 09, Revision A.01,
 M. J. Frisch, G. W. Trucks, H. B. Schlegel, G. E. Scuseria, 
 M. A. Robb, J. R. Cheeseman, G. Scalmani, V. Barone, B. Mennucci, 
 G. A. Petersson, H. Nakatsuji, M. Caricato, X. Li, H. P. Hratchian, 
 A. F. Izmaylov, J. Bloino, G. Zheng, J. L. Sonnenberg, M. Hada, 
 M. Ehara, K. Toyota, R. Fukuda, J. Hasegawa, M. Ishida, T. Nakajima, 
 Y. Honda, O. Kitao, H. Nakai, T. Vreven, J. A. Montgomery, Jr., 
 J. E. Peralta, F. Ogliaro, M. Bearpark, J. J. Heyd, E. Brothers, 
 K. N. Kudin, V. N. Staroverov, R. Kobayashi, J. Normand, 
 K. Raghavachari, A. Rendell, J. C. Burant, S. S. Iyengar, J. Tomasi, 
 M. Cossi, N. Rega, J. M. Millam, M. Klene, J. E. Knox, J. B. Cross, 
 V. Bakken, C. Adamo, J. Jaramillo, R. Gomperts, R. E. Stratmann, 
 O. Yazyev, A. J. Austin, R. Cammi, C. Pomelli, J. W. Ochterski, 
 R. L. Martin, K. Morokuma, V. G. Zakrzewski, G. A. Voth, 
 P. Salvador, J. J. Dannenberg, S. Dapprich, A. D. Daniels, 
 O. Farkas, J. B. Foresman, J. V. Ortiz, J. Cioslowski, 
 and D. J. Fox, Gaussian, Inc., Wallingford CT, 2009.
 
 ******************************************
 Gaussian 09:  EM64L-G09RevA.01  8-May-2009
                18-Sep-2015 
 ******************************************
 %mem=3GB
 %nprocshared=2
 Will use up to    2 processors via shared memory.
 -----------------------------------------
 #p B3LYP/6-31G(d) opt=tight int=ultrafine
 -----------------------------------------
 1/7=10,14=-1,18=20,19=15,26=3,38=1/1,3;
 2/9=110,12=2,17=6,18=5,40=1/2;
 3/5=1,6=6,7=1,11=2,16=1,25=1,30=1,71=1,74=-5,75=-5/1,2,3;
 4//1;
 5/5=2,38=5/2;
 6/7=2,8=2,9=2,10=2,28=1/1;
 7//1,2,3,16;
 1/7=10,14=-1,18=20,19=15/3(2);
 2/9=110/2;
 99//99;
 2/9=110/2;
 3/5=1,6=6,7=1,11=2,16=1,25=1,30=1,71=1,74=-5,75=-5/1,2,3;
 4/5=5,16=3/1;
 5/5=2,38=5/2;
 7//1,2,3,16;
 1/7=10,14=-1,18=20,19=15/3(-5);
 2/9=110/2;
 6/7=2,8=2,9=2,10=2,19=2,28=1/1;
 99/9=1/99;
 Leave Link    1 at Fri Sep 18 13:23:16 2015, MaxMem=  402653184 cpu:       0.1
 (Enter /share/apps/g09/l101.exe)
 ---------------------------------------------
 using B3LYP/6-31G(d) to do opt and freq calc.
 ---------------------------------------------
 Symbolic Z-matrix:
 Charge =  0 Multiplicity = 1
 C                     2.11993  -0.61181  -0.54027 
 H                     2.19657   0.23028  -1.23778 
 H                     1.61592  -1.42861  -1.06843 
 H                     3.13838  -0.9456   -0.31324 
 C                     1.37506  -0.21745   0.73239 
 H                     1.32399  -1.08993   1.41315 
 H                     1.96095   0.55069   1.27514 
 C                    -0.05419   0.32217   0.49811 
 H                    -0.4918    0.53315   1.50758 
 C                    -0.94245  -0.73244  -0.1955 
 H                    -0.72542  -1.73319   0.22638 
 H                    -0.67957  -0.79628  -1.26875 
 C                    -2.43232  -0.43247  -0.04585 
 H                    -2.69438   0.53615  -0.48682 
 H                    -3.04037  -1.19517  -0.54459 
 H                    -2.73588  -0.40602   1.00657 
 C                    -0.03098   1.63872  -0.28757 
 H                     0.59274   2.38872   0.20911 
 H                     0.36661   1.49834  -1.29857 
 H                    -1.0381    2.0572   -0.38759 
 
 NAtoms=     20 NQM=     20 NQMF=      0 NMic=      0 NMicF=      0 NTot=     20.
                    Isotopes and Nuclear Properties:
 (Nuclear quadrupole moments (NQMom) in fm**2, nuclear magnetic moments (NMagM)
  in nuclear magnetons)

  Atom         1           2           3           4           5           6           7           8           9          10
 IAtWgt=          12           1           1           1          12           1           1          12           1          12
 AtmWgt=  12.0000000   1.0078250   1.0078250   1.0078250  12.0000000   1.0078250   1.0078250  12.0000000   1.0078250  12.0000000
 NucSpn=           0           1           1           1           0           1           1           0           1           0
 AtZEff=   0.0000000   0.0000000   0.0000000   0.0000000   0.0000000   0.0000000   0.0000000   0.0000000   0.0000000   0.0000000
 NQMom=    0.0000000   0.0000000   0.0000000   0.0000000   0.0000000   0.0000000   0.0000000   0.0000000   0.0000000   0.0000000
 NMagM=    0.0000000   2.7928460   2.7928460   2.7928460   0.0000000   2.7928460   2.7928460   0.0000000   2.7928460   0.0000000

  Atom        11          12          13          14          15          16          17          18          19          20
 IAtWgt=           1           1          12           1           1           1          12           1           1           1
 AtmWgt=   1.0078250   1.0078250  12.0000000   1.0078250   1.0078250   1.0078250  12.0000000   1.0078250   1.0078250   1.0078250
 NucSpn=           1           1           0           1           1           1           0           1           1           1
 AtZEff=   0.0000000   0.0000000   0.0000000   0.0000000   0.0000000   0.0000000   0.0000000   0.0000000   0.0000000   0.0000000
 NQMom=    0.0000000   0.0000000   0.0000000   0.0000000   0.0000000   0.0000000   0.0000000   0.0000000   0.0000000   0.0000000
 NMagM=    2.7928460   2.7928460   0.0000000   2.7928460   2.7928460   2.7928460   0.0000000   2.7928460   2.7928460   2.7928460
 Leave Link  101 at Fri Sep 18 13:23:16 2015, MaxMem=  402653184 cpu:       0.2
 (Enter /share/apps/g09/l103.exe)

 GradGradGradGradGradGradGradGradGradGradGradGradGradGradGradGradGradGrad
 Berny optimization.
 Initialization pass.
                           ----------------------------
                           !    Initial Parameters    !
                           ! (Angstroms and Degrees)  !
 --------------------------                            --------------------------
 ! Name  Definition              Value          Derivative Info.                !
 --------------------------------------------------------------------------------
 ! R1    R(1,2)                  1.0961         estimate D2E/DX2                !
 ! R2    R(1,3)                  1.0955         estimate D2E/DX2                !
 ! R3    R(1,4)                  1.0955         estimate D2E/DX2                !
 ! R4    R(1,5)                  1.5264         estimate D2E/DX2                !
 ! R5    R(5,6)                  1.1078         estimate D2E/DX2                !
 ! R6    R(5,7)                  1.1081         estimate D2E/DX2                !
 ! R7    R(5,8)                  1.5456         estimate D2E/DX2                !
 ! R8    R(8,9)                  1.1203         estimate D2E/DX2                !
 ! R9    R(8,10)                 1.5435         estimate D2E/DX2                !
 ! R10   R(8,17)                 1.5333         estimate D2E/DX2                !
 ! R11   R(10,11)                1.1075         estimate D2E/DX2                !
 ! R12   R(10,12)                1.1068         estimate D2E/DX2                !
 ! R13   R(10,13)                1.5271         estimate D2E/DX2                !
 ! R14   R(13,14)                1.0961         estimate D2E/DX2                !
 ! R15   R(13,15)                1.0955         estimate D2E/DX2                !
 ! R16   R(13,16)                1.0956         estimate D2E/DX2                !
 ! R17   R(17,18)                1.0946         estimate D2E/DX2                !
 ! R18   R(17,19)                1.0954         estimate D2E/DX2                !
 ! R19   R(17,20)                1.0952         estimate D2E/DX2                !
 ! A1    A(2,1,3)              107.3479         estimate D2E/DX2                !
 ! A2    A(2,1,4)              107.5142         estimate D2E/DX2                !
 ! A3    A(2,1,5)              111.4799         estimate D2E/DX2                !
 ! A4    A(3,1,4)              107.4849         estimate D2E/DX2                !
 ! A5    A(3,1,5)              111.7202         estimate D2E/DX2                !
 ! A6    A(4,1,5)              111.0741         estimate D2E/DX2                !
 ! A7    A(1,5,6)              109.3516         estimate D2E/DX2                !
 ! A8    A(1,5,7)              109.2353         estimate D2E/DX2                !
 ! A9    A(1,5,8)              114.5236         estimate D2E/DX2                !
 ! A10   A(6,5,7)              105.6249         estimate D2E/DX2                !
 ! A11   A(6,5,8)              108.9951         estimate D2E/DX2                !
 ! A12   A(7,5,8)              108.7329         estimate D2E/DX2                !
 ! A13   A(5,8,9)              106.881          estimate D2E/DX2                !
 ! A14   A(5,8,10)             111.2072         estimate D2E/DX2                !
 ! A15   A(5,8,17)             111.3121         estimate D2E/DX2                !
 ! A16   A(9,8,10)             107.9871         estimate D2E/DX2                !
 ! A17   A(9,8,17)             107.8139         estimate D2E/DX2                !
 ! A18   A(10,8,17)            111.4147         estimate D2E/DX2                !
 ! A19   A(8,10,11)            109.4782         estimate D2E/DX2                !
 ! A20   A(8,10,12)            109.7839         estimate D2E/DX2                !
 ! A21   A(8,10,13)            112.5325         estimate D2E/DX2                !
 ! A22   A(11,10,12)           105.7065         estimate D2E/DX2                !
 ! A23   A(11,10,13)           109.3508         estimate D2E/DX2                !
 ! A24   A(12,10,13)           109.7594         estimate D2E/DX2                !
 ! A25   A(10,13,14)           111.5572         estimate D2E/DX2                !
 ! A26   A(10,13,15)           111.108          estimate D2E/DX2                !
 ! A27   A(10,13,16)           111.6645         estimate D2E/DX2                !
 ! A28   A(14,13,15)           107.4207         estimate D2E/DX2                !
 ! A29   A(14,13,16)           107.3902         estimate D2E/DX2                !
 ! A30   A(15,13,16)           107.4765         estimate D2E/DX2                !
 ! A31   A(8,17,18)            111.3719         estimate D2E/DX2                !
 ! A32   A(8,17,19)            111.6157         estimate D2E/DX2                !
 ! A33   A(8,17,20)            111.1593         estimate D2E/DX2                !
 ! A34   A(18,17,19)           107.4446         estimate D2E/DX2                !
 ! A35   A(18,17,20)           107.674          estimate D2E/DX2                !
 ! A36   A(19,17,20)           107.3648         estimate D2E/DX2                !
 ! D1    D(2,1,5,6)           -179.627          estimate D2E/DX2                !
 ! D2    D(2,1,5,7)            -64.4832         estimate D2E/DX2                !
 ! D3    D(2,1,5,8)             57.7293         estimate D2E/DX2                !
 ! D4    D(3,1,5,6)             60.2623         estimate D2E/DX2                !
 ! D5    D(3,1,5,7)            175.4061         estimate D2E/DX2                !
 ! D6    D(3,1,5,8)            -62.3814         estimate D2E/DX2                !
 ! D7    D(4,1,5,6)            -59.7445         estimate D2E/DX2                !
 ! D8    D(4,1,5,7)             55.3992         estimate D2E/DX2                !
 ! D9    D(4,1,5,8)            177.6118         estimate D2E/DX2                !
 ! D10   D(1,5,8,9)            177.9178         estimate D2E/DX2                !
 ! D11   D(1,5,8,10)            60.2787         estimate D2E/DX2                !
 ! D12   D(1,5,8,17)           -64.5946         estimate D2E/DX2                !
 ! D13   D(6,5,8,9)             55.0813         estimate D2E/DX2                !
 ! D14   D(6,5,8,10)           -62.5578         estimate D2E/DX2                !
 ! D15   D(6,5,8,17)           172.5689         estimate D2E/DX2                !
 ! D16   D(7,5,8,9)            -59.5968         estimate D2E/DX2                !
 ! D17   D(7,5,8,10)          -177.2359         estimate D2E/DX2                !
 ! D18   D(7,5,8,17)            57.8908         estimate D2E/DX2                !
 ! D19   D(5,8,10,11)           39.8208         estimate D2E/DX2                !
 ! D20   D(5,8,10,12)          -75.7978         estimate D2E/DX2                !
 ! D21   D(5,8,10,13)          161.6407         estimate D2E/DX2                !
 ! D22   D(9,8,10,11)          -77.1453         estimate D2E/DX2                !
 ! D23   D(9,8,10,12)          167.236          estimate D2E/DX2                !
 ! D24   D(9,8,10,13)           44.6746         estimate D2E/DX2                !
 ! D25   D(17,8,10,11)         164.6364         estimate D2E/DX2                !
 ! D26   D(17,8,10,12)          49.0178         estimate D2E/DX2                !
 ! D27   D(17,8,10,13)         -73.5437         estimate D2E/DX2                !
 ! D28   D(5,8,17,18)          -55.6981         estimate D2E/DX2                !
 ! D29   D(5,8,17,19)           64.3902         estimate D2E/DX2                !
 ! D30   D(5,8,17,20)         -175.7679         estimate D2E/DX2                !
 ! D31   D(9,8,17,18)           61.2227         estimate D2E/DX2                !
 ! D32   D(9,8,17,19)         -178.6891         estimate D2E/DX2                !
 ! D33   D(9,8,17,20)          -58.8471         estimate D2E/DX2                !
 ! D34   D(10,8,17,18)         179.5451         estimate D2E/DX2                !
 ! D35   D(10,8,17,19)         -60.3667         estimate D2E/DX2                !
 ! D36   D(10,8,17,20)          59.4752         estimate D2E/DX2                !
 ! D37   D(8,10,13,14)          60.2533         estimate D2E/DX2                !
 ! D38   D(8,10,13,15)        -179.9079         estimate D2E/DX2                !
 ! D39   D(8,10,13,16)         -59.9262         estimate D2E/DX2                !
 ! D40   D(11,10,13,14)       -177.8545         estimate D2E/DX2                !
 ! D41   D(11,10,13,15)        -58.0158         estimate D2E/DX2                !
 ! D42   D(11,10,13,16)         61.966          estimate D2E/DX2                !
 ! D43   D(12,10,13,14)        -62.3219         estimate D2E/DX2                !
 ! D44   D(12,10,13,15)         57.5169         estimate D2E/DX2                !
 ! D45   D(12,10,13,16)        177.4986         estimate D2E/DX2                !
 --------------------------------------------------------------------------------
 Trust Radius=3.00D-01 FncErr=1.00D-07 GrdErr=1.00D-06
 Number of steps in this run= 110 maximum allowed number of steps= 120.
 GradGradGradGradGradGradGradGradGradGradGradGradGradGradGradGradGradGrad

 Leave Link  103 at Fri Sep 18 13:23:16 2015, MaxMem=  402653184 cpu:       0.0
 (Enter /share/apps/g09/l202.exe)
                          Input orientation:                          
 ---------------------------------------------------------------------
 Center     Atomic      Atomic             Coordinates (Angstroms)
 Number     Number       Type             X           Y           Z
 ---------------------------------------------------------------------
      1          6           0        2.119935   -0.611814   -0.540273
      2          1           0        2.196568    0.230282   -1.237776
      3          1           0        1.615916   -1.428610   -1.068430
      4          1           0        3.138381   -0.945595   -0.313239
      5          6           0        1.375063   -0.217453    0.732392
      6          1           0        1.323993   -1.089934    1.413151
      7          1           0        1.960952    0.550688    1.275136
      8          6           0       -0.054187    0.322170    0.498108
      9          1           0       -0.491797    0.533150    1.507575
     10          6           0       -0.942453   -0.732442   -0.195499
     11          1           0       -0.725423   -1.733187    0.226380
     12          1           0       -0.679568   -0.796283   -1.268752
     13          6           0       -2.432321   -0.432466   -0.045851
     14          1           0       -2.694382    0.536152   -0.486820
     15          1           0       -3.040372   -1.195165   -0.544585
     16          1           0       -2.735881   -0.406021    1.006575
     17          6           0       -0.030976    1.638716   -0.287573
     18          1           0        0.592738    2.388724    0.209114
     19          1           0        0.366607    1.498336   -1.298574
     20          1           0       -1.038101    2.057203   -0.387589
 ---------------------------------------------------------------------
                    Distance matrix (angstroms):
                    1          2          3          4          5
     1  C    0.000000
     2  H    1.096134   0.000000
     3  H    1.095509   1.765717   0.000000
     4  H    1.095530   1.767616   1.766781   0.000000
     5  C    1.526444   2.181032   2.183546   2.175506   0.000000
     6  H    2.162866   3.087357   2.521540   2.508637   1.107820
     7  H    2.161573   2.544190   3.086903   2.479544   1.108096
     8  C    2.584060   2.843877   2.882450   3.529590   1.545586
     9  H    3.510807   3.854347   3.863516   4.322065   2.156265
    10  C    3.084095   3.444798   2.791399   4.088093   2.548936
    11  H    3.152982   3.812741   2.692799   3.980009   2.639231
    12  H    2.898608   3.054006   2.389396   3.938532   2.925941
    13  C    4.582538   4.825612   4.292574   5.600671   3.892052
    14  H    4.949579   4.957709   4.772550   6.020534   4.314485
    15  H    5.193177   5.471559   4.691474   6.188117   4.699219
    16  H    5.100396   5.456285   4.928435   6.044833   4.124390
    17  C    3.123325   2.801522   3.567980   4.089517   2.542172
    18  H    3.449223   3.053626   4.153438   4.227391   2.770922
    19  H    2.846386   2.227199   3.190729   3.824450   2.843543
    20  H    4.137651   3.810976   4.433762   5.144446   3.500254
                    6          7          8          9         10
     6  H    0.000000
     7  H    1.765334   0.000000
     8  C    2.175022   2.171814   0.000000
     9  H    2.437296   2.463801   1.120285   0.000000
    10  C    2.802201   3.498421   1.543475   2.169165   0.000000
    11  H    2.454039   3.678666   2.179194   2.613872   1.107508
    12  H    3.360519   3.906154   2.182621   3.083933   1.106823
    13  C    4.082995   4.691742   2.553603   2.666680   1.527117
    14  H    4.733010   4.977633   2.826040   2.971364   2.182534
    15  H    4.784505   5.601127   3.508107   3.700496   2.176520
    16  H    4.137103   4.800798   2.824940   2.483738   2.183556
    17  C    3.489116   2.755656   1.533338   2.158052   2.541979
    18  H    3.753065   2.527210   2.184645   2.511050   3.501742
    19  H    3.869003   3.172374   2.188264   3.089161   2.811900
    20  H    4.327427   3.745472   2.182404   2.492555   2.797886
                   11         12         13         14         15
    11  H    0.000000
    12  H    1.765024   0.000000
    13  C    2.163212   2.167947   0.000000
    14  H    3.087937   2.538952   1.096061   0.000000
    15  H    2.498568   2.501384   1.095523   1.766495   0.000000
    16  H    2.532196   3.091576   1.095650   1.766250   1.766794
    17  C    3.480824   2.704183   3.180359   2.889477   4.141666
    18  H    4.327586   3.734584   4.144285   3.836861   5.158664
    19  H    3.736409   2.522032   3.623715   3.309743   4.408055
    20  H    3.852503   3.007886   2.873863   2.250935   3.822517
                   16         17         18         19         20
    16  H    0.000000
    17  C    3.629364   0.000000
    18  H    4.418851   1.094637   0.000000
    19  H    4.308796   1.095400   1.765517   0.000000
    20  H    3.300549   1.095187   1.767936   1.765058   0.000000
 Stoichiometry    C6H14
 Framework group  C1[X(C6H14)]
 Deg. of freedom    54
 Full point group                 C1      NOp   1
 Largest Abelian subgroup         C1      NOp   1
 Largest concise Abelian subgroup C1      NOp   1
                         Standard orientation:                         
 ---------------------------------------------------------------------
 Center     Atomic      Atomic             Coordinates (Angstroms)
 Number     Number       Type             X           Y           Z
 ---------------------------------------------------------------------
      1          6           0        2.119935   -0.611814   -0.540273
      2          1           0        2.196568    0.230282   -1.237776
      3          1           0        1.615916   -1.428610   -1.068430
      4          1           0        3.138381   -0.945595   -0.313239
      5          6           0        1.375063   -0.217453    0.732392
      6          1           0        1.323993   -1.089934    1.413151
      7          1           0        1.960952    0.550688    1.275136
      8          6           0       -0.054187    0.322170    0.498108
      9          1           0       -0.491797    0.533150    1.507575
     10          6           0       -0.942453   -0.732442   -0.195499
     11          1           0       -0.725423   -1.733187    0.226380
     12          1           0       -0.679568   -0.796283   -1.268752
     13          6           0       -2.432321   -0.432466   -0.045851
     14          1           0       -2.694382    0.536152   -0.486820
     15          1           0       -3.040372   -1.195165   -0.544585
     16          1           0       -2.735881   -0.406021    1.006575
     17          6           0       -0.030976    1.638716   -0.287573
     18          1           0        0.592738    2.388724    0.209114
     19          1           0        0.366607    1.498336   -1.298574
     20          1           0       -1.038101    2.057203   -0.387589
 ---------------------------------------------------------------------
 Rotational constants (GHZ):      5.1520764      2.1358333      1.8164142
 Leave Link  202 at Fri Sep 18 13:23:16 2015, MaxMem=  402653184 cpu:       0.0
 (Enter /share/apps/g09/l301.exe)
 Standard basis: 6-31G(d) (6D, 7F)
 Ernie: Thresh=  0.10000D-02 Tol=  0.10000D-05 Strict=F.
 There are   118 symmetry adapted basis functions of A   symmetry.
 Integral buffers will be    131072 words long.
 Raffenetti 2 integral format.
 Two-electron integral symmetry is turned on.
   118 basis functions,   224 primitive gaussians,   118 cartesian basis functions
    25 alpha electrons       25 beta electrons
       nuclear repulsion energy       258.6085183338 Hartrees.
 IExCor=  402 DFT=T Ex+Corr=B3LYP ExCW=0 ScaHFX=  0.200000
 ScaDFX=  0.800000  0.720000  1.000000  0.810000 ScalE2=  1.000000  1.000000
 IRadAn=      5 IRanWt=     -1 IRanGd=            0 ICorTp=0
 NAtoms=   20 NActive=   20 NUniq=   20 SFac= 7.50D-01 NAtFMM=   80 NAOKFM=F Big=F
 Leave Link  301 at Fri Sep 18 13:23:16 2015, MaxMem=  402653184 cpu:       0.1
 (Enter /share/apps/g09/l302.exe)
 NPDir=0 NMtPBC=     1 NCelOv=     1 NCel=       1 NClECP=     1 NCelD=      1
         NCelK=      1 NCelE2=     1 NClLst=     1 CellRange=     0.0.
 One-electron integrals computed using PRISM.
 NBasis=   118 RedAO= T  NBF=   118
 NBsUse=   118 1.00D-06 NBFU=   118
 Precomputing XC quadrature grid using
 IXCGrd= 2 IRadAn=           5 IRanWt=          -1 IRanGd=           0 AccXCQ= 1.00D-10.
 NRdTot=    1644 NPtTot=      439726 NUsed=      451507 NTot=      451539
 NSgBfM=   118   118   118   118   118 NAtAll=    20    20.
 Leave Link  302 at Fri Sep 18 13:23:17 2015, MaxMem=  402653184 cpu:       1.2
 (Enter /share/apps/g09/l303.exe)
 DipDrv:  MaxL=1.
 Leave Link  303 at Fri Sep 18 13:23:17 2015, MaxMem=  402653184 cpu:       0.0
 (Enter /share/apps/g09/l401.exe)
 Harris functional with IExCor=  402 diagonalized for initial guess.
 ExpMin= 1.61D-01 ExpMax= 3.05D+03 ExpMxC= 4.57D+02 IAcc=3 IRadAn=         5 AccDes= 0.00D+00
 HarFok:  IExCor=  402 AccDes= 0.00D+00 IRadAn=         5 IDoV= 1
 ScaDFX=  1.000000  1.000000  1.000000  1.000000
 FoFCou: FMM=F IPFlag=           0 FMFlag=      100000 FMFlg1=           0
         NFxFlg=           0 DoJE=T BraDBF=F KetDBF=T FulRan=T
         Omega=  0.000000  0.000000  1.000000  0.000000  0.000000 ICntrl=     500 IOpCl=  0
         NMat0=    1 NMatS0=    1 NMatT0=    0 NMatD0=    1 NMtDS0=    0 NMtDT0=    0
         I1Cent=           4 NGrid=           0.
 Petite list used in FoFCou.
 Harris En= -237.176694660387    
 Initial guess orbital symmetries:
       Occupied  (A) (A) (A) (A) (A) (A) (A) (A) (A) (A) (A) (A)
                 (A) (A) (A) (A) (A) (A) (A) (A) (A) (A) (A) (A)
                 (A)
       Virtual   (A) (A) (A) (A) (A) (A) (A) (A) (A) (A) (A) (A)
                 (A) (A) (A) (A) (A) (A) (A) (A) (A) (A) (A) (A)
                 (A) (A) (A) (A) (A) (A) (A) (A) (A) (A) (A) (A)
                 (A) (A) (A) (A) (A) (A) (A) (A) (A) (A) (A) (A)
                 (A) (A) (A) (A) (A) (A) (A) (A) (A) (A) (A) (A)
                 (A) (A) (A) (A) (A) (A) (A) (A) (A) (A) (A) (A)
                 (A) (A) (A) (A) (A) (A) (A) (A) (A) (A) (A) (A)
                 (A) (A) (A) (A) (A) (A) (A) (A) (A)
 The electronic state of the initial guess is 1-A.
 Leave Link  401 at Fri Sep 18 13:23:22 2015, MaxMem=  402653184 cpu:      10.2
 (Enter /share/apps/g09/l502.exe)
 Closed shell SCF:
 Requested convergence on RMS density matrix=1.00D-08 within 128 cycles.
 Requested convergence on MAX density matrix=1.00D-06.
 Requested convergence on             energy=1.00D-06.
 No special actions if energy rises.
 Using DIIS extrapolation, IDIIS=  1040.
 Integral symmetry usage will be decided dynamically.
       451314 words used for storage of precomputed grid.
 Keep R1 ints in memory in canonical form, NReq=26105369.
 IEnd=      512858 IEndB=      512858 NGot=   402653184 MDV=   377520250
 LenX=   377520250 LenY=   377505885
 Symmetry not used in FoFDir.
 MinBra= 0 MaxBra= 2 Meth= 1.
 IRaf=       0 NMat=   1 IRICut=       1 DoRegI=T DoRafI=F ISym2E= 0 JSym2E=0.
 Integral accuracy reduced to 1.0D-05 until final iterations.

 Cycle   1  Pass 0  IDiag  1:
 E= -236.788854654504    
 DIIS: error= 4.01D-02 at cycle   1 NSaved=   1.
 NSaved= 1 IEnMin= 1 EnMin= -236.788854654504     IErMin= 1 ErrMin= 4.01D-02
 ErrMax= 4.01D-02 EMaxC= 1.00D-01 BMatC= 2.59D-01 BMatP= 2.59D-01
 IDIUse=3 WtCom= 5.99D-01 WtEn= 4.01D-01
 Coeff-Com:  0.100D+01
 Coeff-En:   0.100D+01
 Coeff:      0.100D+01
 Gap=     0.330 Goal=   None    Shift=    0.000
 GapD=    0.330 DampG=1.000 DampE=0.500 DampFc=0.5000 IDamp=-1.
 Damping current iteration by 5.00D-01
 RMSDP=1.02D-02 MaxDP=1.53D-01              OVMax= 1.85D-01

 Cycle   2  Pass 0  IDiag  1:
 E= -236.915263163653     Delta-E=       -0.126408509149 Rises=F Damp=T
 DIIS: error= 8.27D-03 at cycle   2 NSaved=   2.
 NSaved= 2 IEnMin= 2 EnMin= -236.915263163653     IErMin= 2 ErrMin= 8.27D-03
 ErrMax= 8.27D-03 EMaxC= 1.00D-01 BMatC= 1.09D-02 BMatP= 2.59D-01
 IDIUse=3 WtCom= 9.17D-01 WtEn= 8.27D-02
 Coeff-Com:  0.933D-01 0.907D+00
 Coeff-En:   0.154D+00 0.846D+00
 Coeff:      0.984D-01 0.902D+00
 Gap=     0.393 Goal=   None    Shift=    0.000
 RMSDP=1.70D-03 MaxDP=2.56D-02 DE=-1.26D-01 OVMax= 1.04D-01

 Cycle   3  Pass 0  IDiag  1:
 E= -237.079516522500     Delta-E=       -0.164253358848 Rises=F Damp=F
 DIIS: error= 2.65D-03 at cycle   3 NSaved=   3.
 NSaved= 3 IEnMin= 3 EnMin= -237.079516522500     IErMin= 3 ErrMin= 2.65D-03
 ErrMax= 2.65D-03 EMaxC= 1.00D-01 BMatC= 1.30D-03 BMatP= 1.09D-02
 IDIUse=3 WtCom= 9.74D-01 WtEn= 2.65D-02
 Coeff-Com:  0.112D-01 0.209D+00 0.780D+00
 Coeff-En:   0.000D+00 0.000D+00 0.100D+01
 Coeff:      0.109D-01 0.203D+00 0.786D+00
 Gap=     0.382 Goal=   None    Shift=    0.000
 RMSDP=5.36D-04 MaxDP=1.10D-02 DE=-1.64D-01 OVMax= 9.51D-03

 Cycle   4  Pass 0  IDiag  1:
 E= -237.080332206148     Delta-E=       -0.000815683648 Rises=F Damp=F
 DIIS: error= 1.40D-03 at cycle   4 NSaved=   4.
 NSaved= 4 IEnMin= 4 EnMin= -237.080332206148     IErMin= 4 ErrMin= 1.40D-03
 ErrMax= 1.40D-03 EMaxC= 1.00D-01 BMatC= 4.84D-04 BMatP= 1.30D-03
 IDIUse=3 WtCom= 9.86D-01 WtEn= 1.40D-02
 Coeff-Com:  0.465D-03 0.347D-01 0.383D+00 0.582D+00
 Coeff-En:   0.000D+00 0.000D+00 0.245D+00 0.755D+00
 Coeff:      0.458D-03 0.342D-01 0.381D+00 0.584D+00
 Gap=     0.384 Goal=   None    Shift=    0.000
 RMSDP=2.08D-04 MaxDP=4.42D-03 DE=-8.16D-04 OVMax= 4.45D-03

 Cycle   5  Pass 0  IDiag  1:
 E= -237.080783187000     Delta-E=       -0.000450980852 Rises=F Damp=F
 DIIS: error= 2.94D-04 at cycle   5 NSaved=   5.
 NSaved= 5 IEnMin= 5 EnMin= -237.080783187000     IErMin= 5 ErrMin= 2.94D-04
 ErrMax= 2.94D-04 EMaxC= 1.00D-01 BMatC= 2.27D-05 BMatP= 4.84D-04
 IDIUse=3 WtCom= 9.97D-01 WtEn= 2.94D-03
 Coeff-Com:  0.402D-04-0.107D-02 0.103D+00 0.248D+00 0.650D+00
 Coeff-En:   0.000D+00 0.000D+00 0.000D+00 0.000D+00 0.100D+01
 Coeff:      0.401D-04-0.107D-02 0.103D+00 0.248D+00 0.651D+00
 Gap=     0.384 Goal=   None    Shift=    0.000
 RMSDP=4.19D-05 MaxDP=8.85D-04 DE=-4.51D-04 OVMax= 9.06D-04

 Cycle   6  Pass 0  IDiag  1:
 E= -237.080804640606     Delta-E=       -0.000021453606 Rises=F Damp=F
 DIIS: error= 3.73D-05 at cycle   6 NSaved=   6.
 NSaved= 6 IEnMin= 6 EnMin= -237.080804640606     IErMin= 6 ErrMin= 3.73D-05
 ErrMax= 3.73D-05 EMaxC= 1.00D-01 BMatC= 2.66D-07 BMatP= 2.27D-05
 IDIUse=1 WtCom= 1.00D+00 WtEn= 0.00D+00
 Coeff-Com:  0.120D-03-0.109D-02 0.275D-01 0.721D-01 0.222D+00 0.679D+00
 Coeff:      0.120D-03-0.109D-02 0.275D-01 0.721D-01 0.222D+00 0.679D+00
 Gap=     0.384 Goal=   None    Shift=    0.000
 RMSDP=7.64D-06 MaxDP=9.73D-05 DE=-2.15D-05 OVMax= 1.41D-04

 Initial convergence to 1.0D-05 achieved.  Increase integral accuracy.
 Cycle   7  Pass 1  IDiag  1:
 E= -237.080794739555     Delta-E=        0.000009901051 Rises=F Damp=F
 DIIS: error= 6.45D-06 at cycle   1 NSaved=   1.
 NSaved= 1 IEnMin= 1 EnMin= -237.080794739555     IErMin= 1 ErrMin= 6.45D-06
 ErrMax= 6.45D-06 EMaxC= 1.00D-01 BMatC= 1.38D-08 BMatP= 1.38D-08
 IDIUse=1 WtCom= 1.00D+00 WtEn= 0.00D+00
 Coeff-Com:  0.100D+01
 Coeff:      0.100D+01
 Gap=     0.384 Goal=   None    Shift=    0.000
 RMSDP=7.64D-06 MaxDP=9.73D-05 DE= 9.90D-06 OVMax= 4.88D-05

 Cycle   8  Pass 1  IDiag  1:
 E= -237.080794738402     Delta-E=        0.000000001154 Rises=F Damp=F
 DIIS: error= 7.22D-06 at cycle   2 NSaved=   2.
 NSaved= 2 IEnMin= 1 EnMin= -237.080794739555     IErMin= 1 ErrMin= 6.45D-06
 ErrMax= 7.22D-06 EMaxC= 1.00D-01 BMatC= 1.63D-08 BMatP= 1.38D-08
 IDIUse=1 WtCom= 1.00D+00 WtEn= 0.00D+00
 Coeff-Com:  0.522D+00 0.478D+00
 Coeff:      0.522D+00 0.478D+00
 Gap=     0.384 Goal=   None    Shift=    0.000
 RMSDP=1.06D-06 MaxDP=2.80D-05 DE= 1.15D-09 OVMax= 2.68D-05

 Cycle   9  Pass 1  IDiag  1:
 E= -237.080794754172     Delta-E=       -0.000000015771 Rises=F Damp=F
 DIIS: error= 6.42D-07 at cycle   3 NSaved=   3.
 NSaved= 3 IEnMin= 3 EnMin= -237.080794754172     IErMin= 3 ErrMin= 6.42D-07
 ErrMax= 6.42D-07 EMaxC= 1.00D-01 BMatC= 1.49D-10 BMatP= 1.38D-08
 IDIUse=1 WtCom= 1.00D+00 WtEn= 0.00D+00
 Coeff-Com:  0.882D-01 0.127D+00 0.785D+00
 Coeff:      0.882D-01 0.127D+00 0.785D+00
 Gap=     0.384 Goal=   None    Shift=    0.000
 RMSDP=1.44D-07 MaxDP=2.81D-06 DE=-1.58D-08 OVMax= 2.88D-06

 Cycle  10  Pass 1  IDiag  1:
 E= -237.080794754308     Delta-E=       -0.000000000135 Rises=F Damp=F
 DIIS: error= 3.51D-07 at cycle   4 NSaved=   4.
 NSaved= 4 IEnMin= 4 EnMin= -237.080794754308     IErMin= 4 ErrMin= 3.51D-07
 ErrMax= 3.51D-07 EMaxC= 1.00D-01 BMatC= 1.36D-11 BMatP= 1.49D-10
 IDIUse=1 WtCom= 1.00D+00 WtEn= 0.00D+00
 Coeff-Com: -0.444D-02 0.122D-01 0.269D+00 0.723D+00
 Coeff:     -0.444D-02 0.122D-01 0.269D+00 0.723D+00
 Gap=     0.384 Goal=   None    Shift=    0.000
 RMSDP=4.87D-08 MaxDP=7.62D-07 DE=-1.35D-10 OVMax= 9.59D-07

 Cycle  11  Pass 1  IDiag  1:
 E= -237.080794754318     Delta-E=       -0.000000000011 Rises=F Damp=F
 DIIS: error= 7.00D-08 at cycle   5 NSaved=   5.
 NSaved= 5 IEnMin= 5 EnMin= -237.080794754318     IErMin= 5 ErrMin= 7.00D-08
 ErrMax= 7.00D-08 EMaxC= 1.00D-01 BMatC= 1.13D-12 BMatP= 1.36D-11
 IDIUse=1 WtCom= 1.00D+00 WtEn= 0.00D+00
 Coeff-Com: -0.494D-02 0.161D-02 0.998D-01 0.338D+00 0.565D+00
 Coeff:     -0.494D-02 0.161D-02 0.998D-01 0.338D+00 0.565D+00
 Gap=     0.384 Goal=   None    Shift=    0.000
 RMSDP=9.49D-09 MaxDP=2.18D-07 DE=-1.05D-11 OVMax= 2.01D-07

 SCF Done:  E(RB3LYP) =  -237.080794754     A.U. after   11 cycles
             Convg  =    0.9492D-08             -V/T =  2.0105
 KE= 2.346097774250D+02 PE=-1.064130887544D+03 EE= 3.338317970311D+02
 Leave Link  502 at Fri Sep 18 13:24:13 2015, MaxMem=  402653184 cpu:     101.0
 (Enter /share/apps/g09/l601.exe)
 Copying SCF densities to generalized density rwf, IOpCl= 0 IROHF=0.

 **********************************************************************

            Population analysis using the SCF density.

 **********************************************************************

 Orbital symmetries:
       Occupied  (A) (A) (A) (A) (A) (A) (A) (A) (A) (A) (A) (A)
                 (A) (A) (A) (A) (A) (A) (A) (A) (A) (A) (A) (A)
                 (A)
       Virtual   (A) (A) (A) (A) (A) (A) (A) (A) (A) (A) (A) (A)
                 (A) (A) (A) (A) (A) (A) (A) (A) (A) (A) (A) (A)
                 (A) (A) (A) (A) (A) (A) (A) (A) (A) (A) (A) (A)
                 (A) (A) (A) (A) (A) (A) (A) (A) (A) (A) (A) (A)
                 (A) (A) (A) (A) (A) (A) (A) (A) (A) (A) (A) (A)
                 (A) (A) (A) (A) (A) (A) (A) (A) (A) (A) (A) (A)
                 (A) (A) (A) (A) (A) (A) (A) (A) (A) (A) (A) (A)
                 (A) (A) (A) (A) (A) (A) (A) (A) (A)
 The electronic state is 1-A.
 Alpha  occ. eigenvalues --  -10.18249 -10.17571 -10.17534 -10.16913 -10.16811
 Alpha  occ. eigenvalues --  -10.16720  -0.80802  -0.74236  -0.70569  -0.64159
 Alpha  occ. eigenvalues --   -0.60493  -0.53601  -0.45963  -0.44545  -0.43925
 Alpha  occ. eigenvalues --   -0.41529  -0.38320  -0.37744  -0.37422  -0.36057
 Alpha  occ. eigenvalues --   -0.35291  -0.32891  -0.31057  -0.30779  -0.29975
 Alpha virt. eigenvalues --    0.08412   0.11438   0.12240   0.12666   0.14779
 Alpha virt. eigenvalues --    0.15845   0.16073   0.17202   0.17898   0.18432
 Alpha virt. eigenvalues --    0.18716   0.21096   0.22754   0.23237   0.24224
 Alpha virt. eigenvalues --    0.24860   0.26976   0.27680   0.29884   0.49906
 Alpha virt. eigenvalues --    0.51601   0.52078   0.52437   0.54776   0.56883
 Alpha virt. eigenvalues --    0.59142   0.62923   0.64065   0.66571   0.68734
 Alpha virt. eigenvalues --    0.69546   0.74051   0.77069   0.81942   0.83729
 Alpha virt. eigenvalues --    0.86308   0.86752   0.88212   0.88973   0.89839
 Alpha virt. eigenvalues --    0.90386   0.91823   0.93651   0.94675   0.96527
 Alpha virt. eigenvalues --    0.96818   0.98438   1.00014   1.01540   1.02976
 Alpha virt. eigenvalues --    1.04524   1.06136   1.28996   1.30465   1.41918
 Alpha virt. eigenvalues --    1.42494   1.57799   1.60255   1.63655   1.67458
 Alpha virt. eigenvalues --    1.71366   1.74750   1.78861   1.83805   1.89220
 Alpha virt. eigenvalues --    1.95271   1.96690   1.98105   2.00346   2.03877
 Alpha virt. eigenvalues --    2.07974   2.12073   2.13800   2.16498   2.28328
 Alpha virt. eigenvalues --    2.29656   2.31651   2.33599   2.34456   2.36349
 Alpha virt. eigenvalues --    2.42788   2.48995   2.54648   2.61930   2.67548
 Alpha virt. eigenvalues --    2.74378   2.79469   4.11878   4.22030   4.27565
 Alpha virt. eigenvalues --    4.41589   4.44067   4.60034
          Condensed to atoms (all electrons):
              1          2          3          4          5          6
     1  C    5.077253   0.378589   0.378371   0.373003   0.373517  -0.040337
     2  H    0.378589   0.575277  -0.033148  -0.031005  -0.036985   0.005331
     3  H    0.378371  -0.033148   0.573225  -0.031274  -0.035460  -0.004635
     4  H    0.373003  -0.031005  -0.031274   0.578357  -0.028111  -0.002761
     5  C    0.373517  -0.036985  -0.035460  -0.028111   5.000755   0.369830
     6  H   -0.040337   0.005331  -0.004635  -0.002761   0.369830   0.618220
     7  H   -0.040740  -0.003838   0.005321  -0.003670   0.368601  -0.037614
     8  C   -0.043761  -0.005576  -0.006061   0.004517   0.384293  -0.034494
     9  H    0.005347   0.000028   0.000020  -0.000138  -0.042277  -0.003735
    10  C   -0.007574  -0.000734   0.005051   0.000077  -0.043595  -0.006168
    11  H   -0.001294   0.000141   0.001282  -0.000066  -0.004062   0.005628
    12  H    0.002590   0.000220   0.000782  -0.000004  -0.004344  -0.000112
    13  C    0.000230  -0.000023  -0.000078  -0.000002   0.004230   0.000002
    14  H   -0.000016   0.000001   0.000006   0.000000   0.000103   0.000002
    15  H    0.000005   0.000000   0.000008   0.000000  -0.000157  -0.000006
    16  H    0.000005   0.000000  -0.000001   0.000000   0.000014  -0.000004
    17  C   -0.008093   0.003485  -0.000164   0.000095  -0.049974   0.005738
    18  H   -0.000285   0.000280   0.000048  -0.000035  -0.003988  -0.000013
    19  H    0.002529   0.003191   0.000193  -0.000101  -0.006746  -0.000024
    20  H    0.000141  -0.000145  -0.000022   0.000000   0.005082  -0.000175
              7          8          9         10         11         12
     1  C   -0.040740  -0.043761   0.005347  -0.007574  -0.001294   0.002590
     2  H   -0.003838  -0.005576   0.000028  -0.000734   0.000141   0.000220
     3  H    0.005321  -0.006061   0.000020   0.005051   0.001282   0.000782
     4  H   -0.003670   0.004517  -0.000138   0.000077  -0.000066  -0.000004
     5  C    0.368601   0.384293  -0.042277  -0.043595  -0.004062  -0.004344
     6  H   -0.037614  -0.034494  -0.003735  -0.006168   0.005628  -0.000112
     7  H    0.622736  -0.035079  -0.003339   0.005513   0.000097  -0.000153
     8  C   -0.035079   4.868728   0.376363   0.385289  -0.040273  -0.035112
     9  H   -0.003339   0.376363   0.649618  -0.050138  -0.001442   0.005895
    10  C    0.005513   0.385289  -0.050138   5.001070   0.371977   0.371063
    11  H    0.000097  -0.040273  -0.001442   0.371977   0.616353  -0.039664
    12  H   -0.000153  -0.035112   0.005895   0.371063  -0.039664   0.611538
    13  C   -0.000158  -0.040749  -0.006191   0.371127  -0.038348  -0.038466
    14  H    0.000004  -0.005194  -0.000196  -0.034897   0.005203  -0.004460
    15  H    0.000003   0.004332   0.000104  -0.028828  -0.003056  -0.002542
    16  H   -0.000011  -0.005328   0.006186  -0.034559  -0.004449   0.005155
    17  C   -0.005917   0.376459  -0.047122  -0.051103   0.005577  -0.008843
    18  H    0.004952  -0.030056  -0.003061   0.005153  -0.000183   0.000059
    19  H   -0.000132  -0.032999   0.005634  -0.006658   0.000048   0.005756
    20  H   -0.000056  -0.030946  -0.003776  -0.004121  -0.000033  -0.000045
             13         14         15         16         17         18
     1  C    0.000230  -0.000016   0.000005   0.000005  -0.008093  -0.000285
     2  H   -0.000023   0.000001   0.000000   0.000000   0.003485   0.000280
     3  H   -0.000078   0.000006   0.000008  -0.000001  -0.000164   0.000048
     4  H   -0.000002   0.000000   0.000000   0.000000   0.000095  -0.000035
     5  C    0.004230   0.000103  -0.000157   0.000014  -0.049974  -0.003988
     6  H    0.000002   0.000002  -0.000006  -0.000004   0.005738  -0.000013
     7  H   -0.000158   0.000004   0.000003  -0.000011  -0.005917   0.004952
     8  C   -0.040749  -0.005194   0.004332  -0.005328   0.376459  -0.030056
     9  H   -0.006191  -0.000196   0.000104   0.006186  -0.047122  -0.003061
    10  C    0.371127  -0.034897  -0.028828  -0.034559  -0.051103   0.005153
    11  H   -0.038348   0.005203  -0.003056  -0.004449   0.005577  -0.000183
    12  H   -0.038466  -0.004460  -0.002542   0.005155  -0.008843   0.000059
    13  C    5.073443   0.377258   0.370930   0.377653  -0.004225   0.000023
    14  H    0.377258   0.575481  -0.030959  -0.033126   0.001819  -0.000164
    15  H    0.370930  -0.030959   0.581789  -0.031614   0.000022   0.000003
    16  H    0.377653  -0.033126  -0.031614   0.578104  -0.000180  -0.000016
    17  C   -0.004225   0.001819   0.000022  -0.000180   5.121235   0.369488
    18  H    0.000023  -0.000164   0.000003  -0.000016   0.369488   0.580860
    19  H   -0.000050   0.000171  -0.000010   0.000037   0.373137  -0.032560
    20  H    0.001354   0.004356  -0.000135   0.000201   0.370556  -0.029968
             19         20
     1  C    0.002529   0.000141
     2  H    0.003191  -0.000145
     3  H    0.000193  -0.000022
     4  H   -0.000101   0.000000
     5  C   -0.006746   0.005082
     6  H   -0.000024  -0.000175
     7  H   -0.000132  -0.000056
     8  C   -0.032999  -0.030946
     9  H    0.005634  -0.003776
    10  C   -0.006658  -0.004121
    11  H    0.000048  -0.000033
    12  H    0.005756  -0.000045
    13  C   -0.000050   0.001354
    14  H    0.000171   0.004356
    15  H   -0.000010  -0.000135
    16  H    0.000037   0.000201
    17  C    0.373137   0.370556
    18  H   -0.032560  -0.029968
    19  H    0.577669  -0.031699
    20  H   -0.031699   0.576561
 Mulliken atomic charges:
              1
     1  C   -0.449479
     2  H    0.144912
     3  H    0.146536
     4  H    0.141119
     5  C   -0.250725
     6  H    0.125328
     7  H    0.123482
     8  C   -0.054353
     9  H    0.112220
    10  C   -0.247946
    11  H    0.126567
    12  H    0.130689
    13  C   -0.447960
    14  H    0.144609
    15  H    0.140112
    16  H    0.141932
    17  C   -0.451989
    18  H    0.139463
    19  H    0.142614
    20  H    0.142870
 Sum of Mulliken atomic charges =   0.00000
 Mulliken charges with hydrogens summed into heavy atoms:
              1
     1  C   -0.016913
     5  C   -0.001915
     8  C    0.057867
    10  C    0.009310
    13  C   -0.021307
    17  C   -0.027042
 Sum of Mulliken charges with hydrogens summed into heavy atoms =   0.00000
 Electronic spatial extent (au):  <R**2>=            792.2813
 Charge=              0.0000 electrons
 Dipole moment (field-independent basis, Debye):
    X=             -0.0125    Y=             -0.0169    Z=              0.0141  Tot=              0.0253
 Quadrupole moment (field-independent basis, Debye-Ang):
   XX=            -42.0116   YY=            -41.5270   ZZ=            -41.4079
   XY=              0.1190   XZ=              0.0920   YZ=              0.0093
 Traceless Quadrupole moment (field-independent basis, Debye-Ang):
   XX=             -0.3627   YY=              0.1218   ZZ=              0.2409
   XY=              0.1190   XZ=              0.0920   YZ=              0.0093
 Octapole moment (field-independent basis, Debye-Ang**2):
  XXX=              1.5545  YYY=             -1.1012  ZZZ=             -0.0002  XYY=             -0.1219
  XXY=              0.5252  XXZ=              0.5203  XZZ=             -0.6752  YZZ=             -0.0051
  YYZ=              0.4829  XYZ=             -0.1581
 Hexadecapole moment (field-independent basis, Debye-Ang**3):
 XXXX=           -688.9127 YYYY=           -271.6168 ZZZZ=           -143.6526 XXXY=             -0.9975
 XXXZ=              3.2186 YYYX=              1.2682 YYYZ=              1.6250 ZZZX=             -1.7132
 ZZZY=             -0.3876 XXYY=           -156.1537 XXZZ=           -138.5326 YYZZ=            -68.6305
 XXYZ=             -0.2853 YYXZ=              2.0411 ZZXY=              1.5554
 N-N= 2.586085183338D+02 E-N=-1.064130886607D+03  KE= 2.346097774250D+02
 No NMR shielding tensors so no spin-rotation constants.
 Leave Link  601 at Fri Sep 18 13:24:13 2015, MaxMem=  402653184 cpu:       0.3
 (Enter /share/apps/g09/l701.exe)
 Compute integral first derivatives.
 ... and contract with generalized density number  0.
 Leave Link  701 at Fri Sep 18 13:24:13 2015, MaxMem=  402653184 cpu:       0.3
 (Enter /share/apps/g09/l702.exe)
 L702 exits ... SP integral derivatives will be done elsewhere.
 Leave Link  702 at Fri Sep 18 13:24:13 2015, MaxMem=  402653184 cpu:       0.0
 (Enter /share/apps/g09/l703.exe)
 Compute integral first derivatives, UseDBF=F ICtDFT=           0.
 Integral derivatives from FoFDir, PRISM(SPDF).
 Calling FoFJK, ICntrl=      2127 FMM=F ISym2X=0 I1Cent= 0 IOpClX= 0 NMat=1 NMatS=1 NMatT=0.
 FoFCou: FMM=F IPFlag=           0 FMFlag=      100000 FMFlg1=         800
         NFxFlg=           0 DoJE=F BraDBF=F KetDBF=F FulRan=T
         Omega=  0.000000  0.000000  1.000000  0.000000  0.000000 ICntrl=    2127 IOpCl=  0
         NMat0=    1 NMatS0=    1 NMatT0=    0 NMatD0=    1 NMtDS0=    0 NMtDT0=    0
         I1Cent=           0 NGrid=           0.
 Symmetry not used in FoFCou.
 Leave Link  703 at Fri Sep 18 13:24:26 2015, MaxMem=  402653184 cpu:      26.2
 (Enter /share/apps/g09/l716.exe)
 Dipole        =-4.91424072D-03-6.65972372D-03 5.53473434D-03
 ***** Axes restored to original set *****
 -------------------------------------------------------------------
 Center     Atomic                   Forces (Hartrees/Bohr)
 Number     Number              X              Y              Z
 -------------------------------------------------------------------
      1        6           0.002641048   -0.000908671   -0.002782114
      2        1           0.001195456   -0.000542442    0.000112207
      3        1           0.000305799   -0.000450734    0.000080375
      4        1           0.000254698   -0.000109061    0.000093982
      5        6           0.001316305    0.001700623    0.009067257
      6        1          -0.000290421    0.003859018   -0.003672796
      7        1          -0.002674595   -0.003435128   -0.002843744
      8        6           0.001392789   -0.002032390    0.007008336
      9        1           0.004016629   -0.002690841   -0.010329122
     10        6           0.001407203   -0.002846622    0.001057329
     11        1          -0.001405519    0.004789891   -0.001013570
     12        1          -0.001547701    0.000889188    0.005048087
     13        6          -0.003850733   -0.001469457   -0.003208196
     14        1          -0.000519768   -0.000338932   -0.000164505
     15        1          -0.000938826   -0.000062945   -0.000323261
     16        1           0.000759664   -0.000216275    0.001067830
     17        6          -0.002411215    0.002009579    0.000440219
     18        1           0.000417130    0.001014041    0.001093525
     19        1          -0.000352048   -0.000272289   -0.000541171
     20        1           0.000284107    0.001113447   -0.000190668
 -------------------------------------------------------------------
 Cartesian Forces:  Max     0.010329122 RMS     0.002756260
 Leave Link  716 at Fri Sep 18 13:24:26 2015, MaxMem=  402653184 cpu:       0.1
 (Enter /share/apps/g09/l103.exe)

 GradGradGradGradGradGradGradGradGradGradGradGradGradGradGradGradGradGrad
 Berny optimization.
 Internal  Forces:  Max     0.011383284 RMS     0.002178208
 Search for a local minimum.
 Step number   1 out of a maximum of  110
 All quantities printed in internal units (Hartrees-Bohrs-Radians)
 RMS Force = .21782D-02 SwitMx=.10000D-02 MixMth= 1
 Mixed Optimization -- RFO/linear search
 Second derivative matrix not updated -- first step.
     Eigenvalues ---    0.00230   0.00230   0.00325   0.00407   0.00416
     Eigenvalues ---    0.03299   0.03354   0.03469   0.04720   0.04744
     Eigenvalues ---    0.04778   0.04815   0.05408   0.05442   0.05444
     Eigenvalues ---    0.05451   0.05498   0.05508   0.08330   0.08657
     Eigenvalues ---    0.12206   0.12441   0.16000   0.16000   0.16000
     Eigenvalues ---    0.16000   0.16000   0.16000   0.16000   0.16000
     Eigenvalues ---    0.16000   0.16907   0.16961   0.21870   0.21914
     Eigenvalues ---    0.28030   0.28213   0.29117   0.29691   0.29754
     Eigenvalues ---    0.31535   0.32802   0.32832   0.32865   0.32939
     Eigenvalues ---    0.34113   0.34121   0.34168   0.34181   0.34182
     Eigenvalues ---    0.34184   0.34196   0.34220   0.342821000.00000
     Eigenvalues --- 1000.000001000.000001000.000001000.000001000.00000
     Eigenvalues --- 1000.000001000.000001000.000001000.000001000.00000
     Eigenvalues --- 1000.000001000.000001000.000001000.000001000.00000
     Eigenvalues --- 1000.000001000.000001000.000001000.000001000.00000
     Eigenvalues --- 1000.000001000.000001000.000001000.000001000.00000
     Eigenvalues --- 1000.000001000.000001000.000001000.000001000.00000
     Eigenvalues --- 1000.000001000.000001000.000001000.000001000.00000
     Eigenvalues --- 1000.000001000.000001000.000001000.000001000.00000
     Eigenvalues --- 1000.000001000.000001000.000001000.000001000.00000
 RFO step:  Lambda=-2.37814047D-03 EMin= 2.30000000D-03
 Linear search not attempted -- first point.
 Iteration  1 RMS(Cart)=  0.04421230 RMS(Int)=  0.00060344
 Iteration  2 RMS(Cart)=  0.00082387 RMS(Int)=  0.00016025
 Iteration  3 RMS(Cart)=  0.00000033 RMS(Int)=  0.00016025
 Variable       Old X    -DE/DX   Delta X   Delta X   Delta X     New X
                                 (Linear)    (Quad)   (Total)
    R1        2.07139  -0.00041   0.00000  -0.00118  -0.00118   2.07021
    R2        2.07021   0.00016   0.00000   0.00046   0.00046   2.07067
    R3        2.07025   0.00029   0.00000   0.00084   0.00084   2.07110
    R4        2.88456   0.00474   0.00000   0.01581   0.01581   2.90037
    R5        2.09348  -0.00528   0.00000  -0.01597  -0.01597   2.07750
    R6        2.09400  -0.00519   0.00000  -0.01570  -0.01570   2.07830
    R7        2.92074   0.00251   0.00000   0.00889   0.00889   2.92962
    R8        2.11703  -0.01138   0.00000  -0.03583  -0.03583   2.08120
    R9        2.91674   0.00189   0.00000   0.00664   0.00664   2.92339
   R10        2.89759   0.00288   0.00000   0.00981   0.00981   2.90740
   R11        2.09289  -0.00499   0.00000  -0.01507  -0.01507   2.07781
   R12        2.09159  -0.00531   0.00000  -0.01602  -0.01602   2.07557
   R13        2.88583   0.00377   0.00000   0.01261   0.01261   2.89844
   R14        2.07126  -0.00011   0.00000  -0.00031  -0.00031   2.07094
   R15        2.07024   0.00071   0.00000   0.00207   0.00207   2.07231
   R16        2.07048   0.00081   0.00000   0.00235   0.00235   2.07283
   R17        2.06856   0.00143   0.00000   0.00414   0.00414   2.07270
   R18        2.07001   0.00041   0.00000   0.00119   0.00119   2.07119
   R19        2.06960   0.00018   0.00000   0.00052   0.00052   2.07013
    A1        1.87357  -0.00016   0.00000   0.00450   0.00444   1.87801
    A2        1.87648  -0.00066   0.00000  -0.00630  -0.00628   1.87020
    A3        1.94569   0.00130   0.00000   0.00977   0.00975   1.95544
    A4        1.87597  -0.00017   0.00000  -0.00433  -0.00434   1.87163
    A5        1.94988   0.00014   0.00000   0.00203   0.00199   1.95187
    A6        1.93861  -0.00051   0.00000  -0.00612  -0.00611   1.93250
    A7        1.90855  -0.00212   0.00000  -0.01197  -0.01186   1.89669
    A8        1.90652  -0.00210   0.00000  -0.00505  -0.00522   1.90130
    A9        1.99881   0.00684   0.00000   0.03261   0.03261   2.03142
   A10        1.84350   0.00131   0.00000  -0.00019  -0.00029   1.84321
   A11        1.90232  -0.00251   0.00000  -0.01499  -0.01490   1.88743
   A12        1.89775  -0.00182   0.00000  -0.00287  -0.00301   1.89474
   A13        1.86543  -0.00077   0.00000  -0.01938  -0.01905   1.84638
   A14        1.94093   0.00134   0.00000   0.02349   0.02278   1.96371
   A15        1.94276   0.00043   0.00000   0.01915   0.01834   1.96111
   A16        1.88473  -0.00109   0.00000  -0.02585  -0.02557   1.85916
   A17        1.88171  -0.00047   0.00000  -0.01957  -0.01933   1.86238
   A18        1.94455   0.00039   0.00000   0.01742   0.01656   1.96112
   A19        1.91075  -0.00225   0.00000  -0.00997  -0.00995   1.90081
   A20        1.91609  -0.00204   0.00000  -0.00714  -0.00713   1.90896
   A21        1.96406   0.00700   0.00000   0.03292   0.03296   1.99702
   A22        1.84493   0.00153   0.00000   0.00262   0.00251   1.84743
   A23        1.90853  -0.00221   0.00000  -0.01010  -0.01009   1.89844
   A24        1.91566  -0.00239   0.00000  -0.01037  -0.01041   1.90526
   A25        1.94704   0.00083   0.00000   0.00555   0.00554   1.95258
   A26        1.93920   0.00107   0.00000   0.00702   0.00701   1.94621
   A27        1.94891  -0.00179   0.00000  -0.01190  -0.01189   1.93703
   A28        1.87485  -0.00083   0.00000  -0.00349  -0.00353   1.87132
   A29        1.87431   0.00043   0.00000   0.00193   0.00195   1.87626
   A30        1.87582   0.00028   0.00000   0.00086   0.00088   1.87670
   A31        1.94381  -0.00056   0.00000  -0.00401  -0.00400   1.93980
   A32        1.94806  -0.00026   0.00000  -0.00064  -0.00065   1.94741
   A33        1.94010   0.00152   0.00000   0.00900   0.00900   1.94909
   A34        1.87526   0.00052   0.00000   0.00395   0.00395   1.87921
   A35        1.87927  -0.00073   0.00000  -0.00632  -0.00630   1.87296
   A36        1.87387  -0.00055   0.00000  -0.00228  -0.00229   1.87158
    D1       -3.13508   0.00070   0.00000   0.02279   0.02278  -3.11230
    D2       -1.12544  -0.00006   0.00000   0.01318   0.01320  -1.11224
    D3        1.00757   0.00076   0.00000   0.02844   0.02848   1.03605
    D4        1.05178  -0.00009   0.00000   0.00892   0.00888   1.06066
    D5        3.06141  -0.00085   0.00000  -0.00069  -0.00070   3.06072
    D6       -1.08876  -0.00003   0.00000   0.01457   0.01458  -1.07418
    D7       -1.04274   0.00038   0.00000   0.01723   0.01719  -1.02555
    D8        0.96690  -0.00038   0.00000   0.00762   0.00761   0.97451
    D9        3.09991   0.00044   0.00000   0.02288   0.02289   3.12280
   D10        3.10525  -0.00029   0.00000  -0.01605  -0.01611   3.08914
   D11        1.05206   0.00075   0.00000   0.01381   0.01390   1.06596
   D12       -1.12739  -0.00108   0.00000  -0.04075  -0.04095  -1.16834
   D13        0.96135  -0.00042   0.00000  -0.01192  -0.01189   0.94946
   D14       -1.09184   0.00062   0.00000   0.01793   0.01812  -1.07372
   D15        3.01190  -0.00121   0.00000  -0.03662  -0.03673   2.97516
   D16       -1.04016   0.00034   0.00000  -0.00220  -0.00218  -1.04235
   D17       -3.09335   0.00138   0.00000   0.02766   0.02782  -3.06553
   D18        1.01039  -0.00044   0.00000  -0.02690  -0.02703   0.98336
   D19        0.69500  -0.00106   0.00000  -0.00279  -0.00291   0.69209
   D20       -1.32292  -0.00047   0.00000   0.00375   0.00360  -1.31932
   D21        2.82116  -0.00077   0.00000  -0.00055  -0.00071   2.82045
   D22       -1.34644  -0.00023   0.00000   0.02300   0.02304  -1.32340
   D23        2.91882   0.00036   0.00000   0.02954   0.02956   2.94838
   D24        0.77972   0.00007   0.00000   0.02524   0.02525   0.80497
   D25        2.87345   0.00079   0.00000   0.05280   0.05294   2.92639
   D26        0.85552   0.00138   0.00000   0.05934   0.05946   0.91498
   D27       -1.28358   0.00109   0.00000   0.05504   0.05515  -1.22843
   D28       -0.97211   0.00108   0.00000   0.04208   0.04217  -0.92995
   D29        1.12382   0.00119   0.00000   0.04393   0.04402   1.16784
   D30       -3.06773   0.00134   0.00000   0.04671   0.04680  -3.02093
   D31        1.06854   0.00011   0.00000   0.01757   0.01756   1.08610
   D32       -3.11871   0.00022   0.00000   0.01942   0.01941  -3.09930
   D33       -1.02708   0.00038   0.00000   0.02220   0.02220  -1.00488
   D34        3.13365  -0.00128   0.00000  -0.01600  -0.01608   3.11757
   D35       -1.05360  -0.00118   0.00000  -0.01415  -0.01423  -1.06783
   D36        1.03804  -0.00102   0.00000  -0.01138  -0.01145   1.02659
   D37        1.05162  -0.00001   0.00000   0.00422   0.00420   1.05582
   D38       -3.13999   0.00022   0.00000   0.00827   0.00828  -3.13171
   D39       -1.04591   0.00010   0.00000   0.00611   0.00611  -1.03980
   D40       -3.10415   0.00026   0.00000   0.00648   0.00644  -3.09771
   D41       -1.01257   0.00049   0.00000   0.01053   0.01052  -1.00205
   D42        1.08151   0.00037   0.00000   0.00838   0.00834   1.08985
   D43       -1.08772  -0.00049   0.00000  -0.00190  -0.00188  -1.08960
   D44        1.00386  -0.00026   0.00000   0.00215   0.00220   1.00606
   D45        3.09793  -0.00039   0.00000   0.00000   0.00003   3.09796
         Item               Value     Threshold  Converged?
 Maximum Force            0.011383     0.000015     NO 
 RMS     Force            0.002178     0.000010     NO 
 Maximum Displacement     0.193735     0.000060     NO 
 RMS     Displacement     0.044123     0.000040     NO 
 Predicted change in Energy=-1.246886D-03
 GradGradGradGradGradGradGradGradGradGradGradGradGradGradGradGradGradGrad

 Leave Link  103 at Fri Sep 18 13:24:26 2015, MaxMem=  402653184 cpu:       0.1
 (Enter /share/apps/g09/l202.exe)
                          Input orientation:                          
 ---------------------------------------------------------------------
 Center     Atomic      Atomic             Coordinates (Angstroms)
 Number     Number       Type             X           Y           Z
 ---------------------------------------------------------------------
      1          6           0        2.176733   -0.633424   -0.540039
      2          1           0        2.299088    0.195262   -1.246045
      3          1           0        1.685424   -1.454220   -1.074435
      4          1           0        3.181164   -0.977824   -0.268616
      5          6           0        1.390241   -0.214114    0.709463
      6          1           0        1.326454   -1.074788    1.390476
      7          1           0        1.964217    0.550929    1.252411
      8          6           0       -0.045190    0.321484    0.472672
      9          1           0       -0.461858    0.514748    1.473650
     10          6           0       -0.966802   -0.728059   -0.192358
     11          1           0       -0.755298   -1.715121    0.243468
     12          1           0       -0.715211   -0.810643   -1.258306
     13          6           0       -2.465893   -0.436581   -0.049982
     14          1           0       -2.741333    0.519621   -0.509107
     15          1           0       -3.073837   -1.213617   -0.528719
     16          1           0       -2.758789   -0.391912    1.006141
     17          6           0       -0.052411    1.665316   -0.276414
     18          1           0        0.587772    2.401271    0.225147
     19          1           0        0.309805    1.555395   -1.305003
     20          1           0       -1.059580    2.092729   -0.330935
 ---------------------------------------------------------------------
                    Distance matrix (angstroms):
                    1          2          3          4          5
     1  C    0.000000
     2  H    1.095507   0.000000
     3  H    1.095751   1.768283   0.000000
     4  H    1.095976   1.763393   1.764522   0.000000
     5  C    1.534812   2.194904   2.192553   2.178830   0.000000
     6  H    2.155148   3.083875   2.519645   2.490368   1.099367
     7  H    2.158873   2.545766   3.084244   2.476201   1.099787
     8  C    2.621902   2.909564   2.922616   3.556271   1.550289
     9  H    3.512179   3.888654   3.870451   4.305214   2.132015
    10  C    3.164119   3.553705   2.887849   4.156179   2.575475
    11  H    3.221918   3.898396   2.786047   4.037520   2.659608
    12  H    2.985072   3.177734   2.492197   4.023577   2.942939
    13  C    4.672567   4.953266   4.395285   5.677147   3.936498
    14  H    5.051519   5.104325   4.879736   6.113604   4.369575
    15  H    5.282540   5.600698   4.796483   6.264845   4.739208
    16  H    5.177681   5.567696   5.020789   6.103388   4.163422
    17  C    3.212909   2.937821   3.659018   4.176393   2.566214
    18  H    3.509940   3.155866   4.214091   4.288096   2.778265
    19  H    2.976830   2.410536   3.317118   3.966862   2.890774
    20  H    4.236668   3.964652   4.546283   5.236038   3.522154
                    6          7          8          9         10
     6  H    0.000000
     7  H    1.751788   0.000000
     8  C    2.161792   2.167568   0.000000
     9  H    2.394077   2.436410   1.101326   0.000000
    10  C    2.807954   3.509137   1.546989   2.138953   0.000000
    11  H    2.461574   3.680858   2.168997   2.563547   1.099532
    12  H    3.354730   3.916238   2.174150   3.047037   1.098346
    13  C    4.106595   4.722000   2.589910   2.691215   1.533788
    14  H    4.764184   5.024552   2.876167   3.021151   2.192258
    15  H    4.802618   5.627436   3.540060   3.717413   2.188264
    16  H    4.159717   4.822487   2.856072   2.513263   2.181883
    17  C    3.491126   2.765132   1.538528   2.134052   2.563479
    18  H    3.739870   2.524606   2.188018   2.493882   3.519051
    19  H    3.900903   3.207241   2.192872   3.065831   2.842863
    20  H    4.323144   3.745328   2.193646   2.470591   2.825713
                   11         12         13         14         15
    11  H    0.000000
    12  H    1.753571   0.000000
    13  C    2.155670   2.159828   0.000000
    14  H    3.082982   2.536942   1.095895   0.000000
    15  H    2.494674   2.501559   1.096617   1.764953   0.000000
    16  H    2.519232   3.078842   1.096895   1.768382   1.769251
    17  C    3.491660   2.744775   3.208449   2.932075   4.181020
    18  H    4.329995   3.770251   4.177795   3.893928   5.200299
    19  H    3.772066   2.578949   3.639719   3.318994   4.440617
    20  H    3.862933   3.067275   2.907587   2.309698   3.876632
                   16         17         18         19         20
    16  H    0.000000
    17  C    3.633403   0.000000
    18  H    4.428464   1.096826   0.000000
    19  H    4.306932   1.096028   1.770347   0.000000
    20  H    3.293710   1.095465   1.765841   1.764299   0.000000
 Stoichiometry    C6H14
 Framework group  C1[X(C6H14)]
 Deg. of freedom    54
 Full point group                 C1      NOp   1
 Largest Abelian subgroup         C1      NOp   1
 Largest concise Abelian subgroup C1      NOp   1
                         Standard orientation:                         
 ---------------------------------------------------------------------
 Center     Atomic      Atomic             Coordinates (Angstroms)
 Number     Number       Type             X           Y           Z
 ---------------------------------------------------------------------
      1          6           0        2.182845   -0.619406   -0.527989
      2          1           0        2.299243    0.205019   -1.239966
      3          1           0        1.699515   -1.448367   -1.057032
      4          1           0        3.189748   -0.953101   -0.252387
      5          6           0        1.390682   -0.197591    0.717080
      6          1           0        1.333168   -1.053684    1.404396
      7          1           0        1.957142    0.576397    1.255223
      8          6           0       -0.048908    0.323832    0.473987
      9          1           0       -0.468898    0.520952    1.472822
     10          6           0       -0.960336   -0.738545   -0.184669
     11          1           0       -0.741072   -1.720472    0.258854
     12          1           0       -0.706261   -0.826899   -1.249565
     13          6           0       -2.462117   -0.458949   -0.046886
     14          1           0       -2.745010    0.491395   -0.513581
     15          1           0       -3.062547   -1.244744   -0.520785
     16          1           0       -2.757154   -0.408937    1.008402
     17          6           0       -0.066444    1.661932   -0.285123
     18          1           0        0.566539    2.407096    0.211958
     19          1           0        0.298425    1.547475   -1.312278
     20          1           0       -1.077163    2.080227   -0.344454
 ---------------------------------------------------------------------
 Rotational constants (GHZ):      5.1139841      2.0779219      1.7572190
 Leave Link  202 at Fri Sep 18 13:24:26 2015, MaxMem=  402653184 cpu:       0.0
 (Enter /share/apps/g09/l301.exe)
 Standard basis: 6-31G(d) (6D, 7F)
 Ernie: Thresh=  0.10000D-02 Tol=  0.10000D-05 Strict=F.
 There are   118 symmetry adapted basis functions of A   symmetry.
 Integral buffers will be    131072 words long.
 Raffenetti 2 integral format.
 Two-electron integral symmetry is turned on.
   118 basis functions,   224 primitive gaussians,   118 cartesian basis functions
    25 alpha electrons       25 beta electrons
       nuclear repulsion energy       256.8538065105 Hartrees.
 IExCor=  402 DFT=T Ex+Corr=B3LYP ExCW=0 ScaHFX=  0.200000
 ScaDFX=  0.800000  0.720000  1.000000  0.810000 ScalE2=  1.000000  1.000000
 IRadAn=      5 IRanWt=     -1 IRanGd=            0 ICorTp=0
 NAtoms=   20 NActive=   20 NUniq=   20 SFac= 7.50D-01 NAtFMM=   80 NAOKFM=F Big=F
 Leave Link  301 at Fri Sep 18 13:24:26 2015, MaxMem=  402653184 cpu:       0.1
 (Enter /share/apps/g09/l302.exe)
 NPDir=0 NMtPBC=     1 NCelOv=     1 NCel=       1 NClECP=     1 NCelD=      1
         NCelK=      1 NCelE2=     1 NClLst=     1 CellRange=     0.0.
 One-electron integrals computed using PRISM.
 NBasis=   118 RedAO= T  NBF=   118
 NBsUse=   118 1.00D-06 NBFU=   118
 Precomputing XC quadrature grid using
 IXCGrd= 2 IRadAn=           5 IRanWt=          -1 IRanGd=           0 AccXCQ= 1.00D-10.
 NRdTot=    1644 NPtTot=      440330 NUsed=      452111 NTot=      452143
 NSgBfM=   118   118   118   118   118 NAtAll=    20    20.
 Leave Link  302 at Fri Sep 18 13:24:27 2015, MaxMem=  402653184 cpu:       1.2
 (Enter /share/apps/g09/l303.exe)
 DipDrv:  MaxL=1.
 Leave Link  303 at Fri Sep 18 13:24:27 2015, MaxMem=  402653184 cpu:       0.0
 (Enter /share/apps/g09/l401.exe)
 Initial guess read from the read-write file.
 B after Tr=     0.000000    0.000000    0.000000
         Rot=    1.000000    0.000000    0.000000    0.000000 Ang=   0.00 deg.
 Guess basis will be translated and rotated to current coordinates.
 Initial guess orbital symmetries:
       Occupied  (A) (A) (A) (A) (A) (A) (A) (A) (A) (A) (A) (A)
                 (A) (A) (A) (A) (A) (A) (A) (A) (A) (A) (A) (A)
                 (A)
       Virtual   (A) (A) (A) (A) (A) (A) (A) (A) (A) (A) (A) (A)
                 (A) (A) (A) (A) (A) (A) (A) (A) (A) (A) (A) (A)
                 (A) (A) (A) (A) (A) (A) (A) (A) (A) (A) (A) (A)
                 (A) (A) (A) (A) (A) (A) (A) (A) (A) (A) (A) (A)
                 (A) (A) (A) (A) (A) (A) (A) (A) (A) (A) (A) (A)
                 (A) (A) (A) (A) (A) (A) (A) (A) (A) (A) (A) (A)
                 (A) (A) (A) (A) (A) (A) (A) (A) (A) (A) (A) (A)
                 (A) (A) (A) (A) (A) (A) (A) (A) (A)
 The electronic state of the initial guess is 1-A.
 Generating alternative initial guess.
 Harris functional with IExCor=  402 diagonalized for initial guess.
 ExpMin= 1.61D-01 ExpMax= 3.05D+03 ExpMxC= 4.57D+02 IAcc=3 IRadAn=         5 AccDes= 0.00D+00
 HarFok:  IExCor=  402 AccDes= 0.00D+00 IRadAn=         5 IDoV= 1
 ScaDFX=  1.000000  1.000000  1.000000  1.000000
 FoFCou: FMM=F IPFlag=           0 FMFlag=      100000 FMFlg1=           0
         NFxFlg=           0 DoJE=T BraDBF=F KetDBF=T FulRan=T
         Omega=  0.000000  0.000000  1.000000  0.000000  0.000000 ICntrl=     500 IOpCl=  0
         NMat0=    1 NMatS0=    1 NMatT0=    0 NMatD0=    1 NMtDS0=    0 NMtDT0=    0
         I1Cent=           4 NGrid=           0.
 Petite list used in FoFCou.
 Harris En= -237.180284703080    
 Leave Link  401 at Fri Sep 18 13:24:32 2015, MaxMem=  402653184 cpu:      10.8
 (Enter /share/apps/g09/l502.exe)
 Closed shell SCF:
 Requested convergence on RMS density matrix=1.00D-08 within 128 cycles.
 Requested convergence on MAX density matrix=1.00D-06.
 Requested convergence on             energy=1.00D-06.
 No special actions if energy rises.
 Using DIIS extrapolation, IDIIS=  1040.
 Integral symmetry usage will be decided dynamically.
       451918 words used for storage of precomputed grid.
 Keep R1 ints in memory in canonical form, NReq=26105973.
 IEnd=      513462 IEndB=      513462 NGot=   402653184 MDV=   377519646
 LenX=   377519646 LenY=   377505281
 Symmetry not used in FoFDir.
 MinBra= 0 MaxBra= 2 Meth= 1.
 IRaf=       0 NMat=   1 IRICut=       1 DoRegI=T DoRafI=F ISym2E= 0 JSym2E=0.
 Integral accuracy reduced to 1.0D-05 until final iterations.

 Cycle   1  Pass 0  IDiag  1:
 E= -237.079835866007    
 DIIS: error= 1.74D-03 at cycle   1 NSaved=   1.
 NSaved= 1 IEnMin= 1 EnMin= -237.079835866007     IErMin= 1 ErrMin= 1.74D-03
 ErrMax= 1.74D-03 EMaxC= 1.00D-01 BMatC= 9.69D-04 BMatP= 9.69D-04
 IDIUse=3 WtCom= 9.83D-01 WtEn= 1.74D-02
 Coeff-Com:  0.100D+01
 Coeff-En:   0.100D+01
 Coeff:      0.100D+01
 Gap=     0.386 Goal=   None    Shift=    0.000
 GapD=    0.386 DampG=1.000 DampE=1.000 DampFc=1.0000 IDamp=-1.
 RMSDP=3.92D-04 MaxDP=5.40D-03              OVMax= 1.06D-02

 Cycle   2  Pass 0  IDiag  1:
 E= -237.081681659524     Delta-E=       -0.001845793518 Rises=F Damp=F
 DIIS: error= 4.83D-04 at cycle   2 NSaved=   2.
 NSaved= 2 IEnMin= 2 EnMin= -237.081681659524     IErMin= 2 ErrMin= 4.83D-04
 ErrMax= 4.83D-04 EMaxC= 1.00D-01 BMatC= 2.80D-05 BMatP= 9.69D-04
 IDIUse=3 WtCom= 9.95D-01 WtEn= 4.83D-03
 Coeff-Com: -0.181D-01 0.102D+01
 Coeff-En:   0.000D+00 0.100D+01
 Coeff:     -0.180D-01 0.102D+01
 Gap=     0.384 Goal=   None    Shift=    0.000
 RMSDP=1.01D-04 MaxDP=1.43D-03 DE=-1.85D-03 OVMax= 2.40D-03

 Cycle   3  Pass 0  IDiag  1:
 E= -237.081693709846     Delta-E=       -0.000012050321 Rises=F Damp=F
 DIIS: error= 2.99D-04 at cycle   3 NSaved=   3.
 NSaved= 3 IEnMin= 3 EnMin= -237.081693709846     IErMin= 3 ErrMin= 2.99D-04
 ErrMax= 2.99D-04 EMaxC= 1.00D-01 BMatC= 2.65D-05 BMatP= 2.80D-05
 IDIUse=3 WtCom= 9.97D-01 WtEn= 2.99D-03
 Coeff-Com: -0.371D-01 0.517D+00 0.520D+00
 Coeff-En:   0.000D+00 0.372D+00 0.628D+00
 Coeff:     -0.370D-01 0.517D+00 0.520D+00
 Gap=     0.385 Goal=   None    Shift=    0.000
 RMSDP=5.04D-05 MaxDP=7.44D-04 DE=-1.21D-05 OVMax= 1.07D-03

 Cycle   4  Pass 0  IDiag  1:
 E= -237.081719886956     Delta-E=       -0.000026177111 Rises=F Damp=F
 DIIS: error= 4.99D-05 at cycle   4 NSaved=   4.
 NSaved= 4 IEnMin= 4 EnMin= -237.081719886956     IErMin= 4 ErrMin= 4.99D-05
 ErrMax= 4.99D-05 EMaxC= 1.00D-01 BMatC= 6.97D-07 BMatP= 2.65D-05
 IDIUse=1 WtCom= 1.00D+00 WtEn= 0.00D+00
 Coeff-Com: -0.153D-01 0.160D+00 0.215D+00 0.640D+00
 Coeff:     -0.153D-01 0.160D+00 0.215D+00 0.640D+00
 Gap=     0.385 Goal=   None    Shift=    0.000
 RMSDP=8.28D-06 MaxDP=1.16D-04 DE=-2.62D-05 OVMax= 1.61D-04

 Initial convergence to 1.0D-05 achieved.  Increase integral accuracy.
 Cycle   5  Pass 1  IDiag  1:
 E= -237.081716491849     Delta-E=        0.000003395107 Rises=F Damp=F
 DIIS: error= 9.48D-06 at cycle   1 NSaved=   1.
 NSaved= 1 IEnMin= 1 EnMin= -237.081716491849     IErMin= 1 ErrMin= 9.48D-06
 ErrMax= 9.48D-06 EMaxC= 1.00D-01 BMatC= 1.85D-08 BMatP= 1.85D-08
 IDIUse=1 WtCom= 1.00D+00 WtEn= 0.00D+00
 Coeff-Com:  0.100D+01
 Coeff:      0.100D+01
 Gap=     0.385 Goal=   None    Shift=    0.000
 RMSDP=8.28D-06 MaxDP=1.16D-04 DE= 3.40D-06 OVMax= 6.66D-05

 Cycle   6  Pass 1  IDiag  1:
 E= -237.081716494142     Delta-E=       -0.000000002293 Rises=F Damp=F
 DIIS: error= 9.06D-06 at cycle   2 NSaved=   2.
 NSaved= 2 IEnMin= 2 EnMin= -237.081716494142     IErMin= 2 ErrMin= 9.06D-06
 ErrMax= 9.06D-06 EMaxC= 1.00D-01 BMatC= 1.86D-08 BMatP= 1.85D-08
 IDIUse=1 WtCom= 1.00D+00 WtEn= 0.00D+00
 Coeff-Com:  0.501D+00 0.499D+00
 Coeff:      0.501D+00 0.499D+00
 Gap=     0.385 Goal=   None    Shift=    0.000
 RMSDP=1.41D-06 MaxDP=2.98D-05 DE=-2.29D-09 OVMax= 3.37D-05

 Cycle   7  Pass 1  IDiag  1:
 E= -237.081716512740     Delta-E=       -0.000000018598 Rises=F Damp=F
 DIIS: error= 1.37D-06 at cycle   3 NSaved=   3.
 NSaved= 3 IEnMin= 3 EnMin= -237.081716512740     IErMin= 3 ErrMin= 1.37D-06
 ErrMax= 1.37D-06 EMaxC= 1.00D-01 BMatC= 4.69D-10 BMatP= 1.85D-08
 IDIUse=1 WtCom= 1.00D+00 WtEn= 0.00D+00
 Coeff-Com:  0.157D+00 0.204D+00 0.639D+00
 Coeff:      0.157D+00 0.204D+00 0.639D+00
 Gap=     0.385 Goal=   None    Shift=    0.000
 RMSDP=2.74D-07 MaxDP=4.41D-06 DE=-1.86D-08 OVMax= 5.23D-06

 Cycle   8  Pass 1  IDiag  1:
 E= -237.081716513209     Delta-E=       -0.000000000469 Rises=F Damp=F
 DIIS: error= 3.39D-07 at cycle   4 NSaved=   4.
 NSaved= 4 IEnMin= 4 EnMin= -237.081716513209     IErMin= 4 ErrMin= 3.39D-07
 ErrMax= 3.39D-07 EMaxC= 1.00D-01 BMatC= 2.30D-11 BMatP= 4.69D-10
 IDIUse=1 WtCom= 1.00D+00 WtEn= 0.00D+00
 Coeff-Com: -0.107D-01 0.302D-02 0.190D+00 0.818D+00
 Coeff:     -0.107D-01 0.302D-02 0.190D+00 0.818D+00
 Gap=     0.385 Goal=   None    Shift=    0.000
 RMSDP=6.16D-08 MaxDP=8.07D-07 DE=-4.69D-10 OVMax= 1.20D-06

 Cycle   9  Pass 1  IDiag  1:
 E= -237.081716513234     Delta-E=       -0.000000000025 Rises=F Damp=F
 DIIS: error= 5.69D-08 at cycle   5 NSaved=   5.
 NSaved= 5 IEnMin= 5 EnMin= -237.081716513234     IErMin= 5 ErrMin= 5.69D-08
 ErrMax= 5.69D-08 EMaxC= 1.00D-01 BMatC= 7.53D-13 BMatP= 2.30D-11
 IDIUse=1 WtCom= 1.00D+00 WtEn= 0.00D+00
 Coeff-Com: -0.654D-02-0.137D-02 0.695D-01 0.336D+00 0.602D+00
 Coeff:     -0.654D-02-0.137D-02 0.695D-01 0.336D+00 0.602D+00
 Gap=     0.385 Goal=   None    Shift=    0.000
 RMSDP=7.95D-09 MaxDP=2.37D-07 DE=-2.47D-11 OVMax= 1.71D-07

 SCF Done:  E(RB3LYP) =  -237.081716513     A.U. after    9 cycles
             Convg  =    0.7948D-08             -V/T =  2.0106
 KE= 2.346052374259D+02 PE=-1.060623099726D+03 EE= 3.320823392763D+02
 Leave Link  502 at Fri Sep 18 13:25:19 2015, MaxMem=  402653184 cpu:      92.3
 (Enter /share/apps/g09/l701.exe)
 Compute integral first derivatives.
 ... and contract with generalized density number  0.
 Leave Link  701 at Fri Sep 18 13:25:19 2015, MaxMem=  402653184 cpu:       0.3
 (Enter /share/apps/g09/l702.exe)
 L702 exits ... SP integral derivatives will be done elsewhere.
 Leave Link  702 at Fri Sep 18 13:25:19 2015, MaxMem=  402653184 cpu:       0.0
 (Enter /share/apps/g09/l703.exe)
 Compute integral first derivatives, UseDBF=F ICtDFT=           0.
 Integral derivatives from FoFDir, PRISM(SPDF).
 Calling FoFJK, ICntrl=      2127 FMM=F ISym2X=0 I1Cent= 0 IOpClX= 0 NMat=1 NMatS=1 NMatT=0.
 FoFCou: FMM=F IPFlag=           0 FMFlag=      100000 FMFlg1=         800
         NFxFlg=           0 DoJE=F BraDBF=F KetDBF=F FulRan=T
         Omega=  0.000000  0.000000  1.000000  0.000000  0.000000 ICntrl=    2127 IOpCl=  0
         NMat0=    1 NMatS0=    1 NMatT0=    0 NMatD0=    1 NMtDS0=    0 NMtDT0=    0
         I1Cent=           0 NGrid=           0.
 Symmetry not used in FoFCou.
 Leave Link  703 at Fri Sep 18 13:25:31 2015, MaxMem=  402653184 cpu:      25.1
 (Enter /share/apps/g09/l716.exe)
 Dipole        =-2.95512013D-03-1.15889493D-02 2.06773336D-02
 ***** Axes restored to original set *****
 -------------------------------------------------------------------
 Center     Atomic                   Forces (Hartrees/Bohr)
 Number     Number              X              Y              Z
 -------------------------------------------------------------------
      1        6          -0.000487363    0.000225572   -0.000523000
      2        1          -0.000231597    0.000510971   -0.000148908
      3        1          -0.000387298   -0.000006842   -0.000044610
      4        1          -0.000032124   -0.000008998    0.000522234
      5        6          -0.001000807   -0.000070926    0.000089878
      6        1          -0.000229491   -0.000212233   -0.000341227
      7        1          -0.000589507    0.000311705   -0.000637400
      8        6          -0.000766308   -0.000160101    0.001687838
      9        1           0.000420298   -0.000171905    0.000621767
     10        6           0.001673055    0.000060224   -0.000808179
     11        1          -0.000108974    0.000303739    0.000492156
     12        1           0.000220150   -0.000166669   -0.000555928
     13        6          -0.000006779    0.000774687    0.000166133
     14        1          -0.000008276    0.000057477   -0.000061534
     15        1           0.000859283   -0.000172842    0.000030854
     16        1          -0.000098318    0.000102172    0.000241991
     17        6           0.000339824   -0.000750611   -0.000444983
     18        1           0.000120586   -0.000288715    0.000144434
     19        1           0.000445712   -0.000096746   -0.000635502
     20        1          -0.000132068   -0.000239961    0.000203986
 -------------------------------------------------------------------
 Cartesian Forces:  Max     0.001687838 RMS     0.000497553
 Leave Link  716 at Fri Sep 18 13:25:31 2015, MaxMem=  402653184 cpu:       0.0
 (Enter /share/apps/g09/l103.exe)

 GradGradGradGradGradGradGradGradGradGradGradGradGradGradGradGradGradGrad
 Berny optimization.
 Using GEDIIS/GDIIS optimizer.
 Internal  Forces:  Max     0.003162228 RMS     0.000572755
 Search for a local minimum.
 Step number   2 out of a maximum of  110
 All quantities printed in internal units (Hartrees-Bohrs-Radians)
 RMS Force = .57275D-03 SwitMx=.10000D-02 MixMth= 2
 Mixed Optimization -- En-DIIS/RFO-DIIS
 Update second derivatives using D2CorX and points    1    2
 DE= -9.22D-04 DEPred=-1.25D-03 R= 7.39D-01
 SS=  1.41D+00  RLast= 1.91D-01 DXNew= 5.0454D-01 5.7377D-01
 Trust test= 7.39D-01 RLast= 1.91D-01 DXMaxT set to 5.05D-01
 Use linear search instead of GDIIS.
     Eigenvalues ---    0.00224   0.00231   0.00326   0.00407   0.00416
     Eigenvalues ---    0.03136   0.03305   0.03663   0.04738   0.04796
     Eigenvalues ---    0.04859   0.04906   0.05376   0.05397   0.05431
     Eigenvalues ---    0.05445   0.05506   0.05540   0.08631   0.08961
     Eigenvalues ---    0.12413   0.12657   0.15822   0.16000   0.16000
     Eigenvalues ---    0.16000   0.16000   0.16000   0.16000   0.16000
     Eigenvalues ---    0.16229   0.17516   0.17551   0.21631   0.22656
     Eigenvalues ---    0.27945   0.28204   0.29191   0.29715   0.30169
[...]
                          Input orientation:                          
 ---------------------------------------------------------------------
 Center     Atomic      Atomic             Coordinates (Angstroms)
 Number     Number       Type             X           Y           Z
 ---------------------------------------------------------------------
      1          6           0        2.167169   -0.587322   -0.568713
      2          1           0        2.284266    0.278139   -1.230638
      3          1           0        1.668872   -1.378453   -1.140231
      4          1           0        3.172379   -0.946961   -0.320466
      5          6           0        1.393965   -0.230467    0.708153
      6          1           0        1.347087   -1.118871    1.353771
      7          1           0        1.965591    0.522082    1.269452
      8          6           0       -0.043898    0.301771    0.506049
      9          1           0       -0.440079    0.498019    1.515127
     10          6           0       -0.965049   -0.754282   -0.139794
     11          1           0       -0.808519   -1.714313    0.372707
     12          1           0       -0.665212   -0.914907   -1.184700
     13          6           0       -2.458703   -0.409758   -0.093500
     14          1           0       -2.689487    0.493952   -0.668405
     15          1           0       -3.062287   -1.224674   -0.509522
     16          1           0       -2.794045   -0.241689    0.937770
     17          6           0       -0.059885    1.637192   -0.256209
     18          1           0        0.621236    2.361617    0.206888
     19          1           0        0.250266    1.509559   -1.300594
     20          1           0       -1.058976    2.085817   -0.263675
 ---------------------------------------------------------------------
                    Distance matrix (angstroms):
                    1          2          3          4          5
     1  C    0.000000
     2  H    1.095846   0.000000
     3  H    1.095820   1.769514   0.000000
     4  H    1.096090   1.765794   1.765994   0.000000
     5  C    1.534789   2.193222   2.193165   2.175816   0.000000
     6  H    2.156622   3.083684   2.528037   2.482803   1.099219
     7  H    2.156446   2.532096   3.083286   2.478359   1.099155
     8  C    2.614272   2.904650   2.909807   3.547802   1.546472
     9  H    3.509715   3.874226   3.875532   4.302003   2.132046
    10  C    3.165855   3.579648   2.885828   4.145851   2.560927
    11  H    3.318298   4.013216   2.922200   4.113013   2.676801
    12  H    2.917042   3.181963   2.380084   3.933832   2.879507
    13  C    4.653606   4.925651   4.367023   5.661200   3.939269
    14  H    4.976565   5.010079   4.766950   6.046384   4.369700
    15  H    5.268485   5.600364   4.775490   6.243711   4.725396
    16  H    5.196403   5.546301   5.052520   6.138305   4.194316
    17  C    3.163209   2.879510   3.586672   4.138781   2.555744
    18  H    3.418729   3.028701   4.111010   4.211071   2.750868
    19  H    2.933782   2.378748   3.221610   3.941305   2.893234
    20  H    4.200802   3.921733   4.495629   5.206279   3.510918
                    6          7          8          9         10
     6  H    0.000000
     7  H    1.755672   0.000000
     8  C    2.161410   2.160872   0.000000
     9  H    2.415436   2.418302   1.101686   0.000000
    10  C    2.776623   3.493385   1.543010   2.140705   0.000000
    11  H    2.442064   3.674412   2.160328   2.516999   1.099463
    12  H    3.245733   3.874135   2.173699   3.055505   1.098877
    13  C    4.132973   4.722323   2.587858   2.736161   1.533571
    14  H    4.794197   5.042403   2.900933   3.134910   2.193445
    15  H    4.788072   5.612082   3.531584   3.734012   2.180911
    16  H    4.253409   4.831925   2.836378   2.534101   2.183832
    17  C    3.488193   2.770138   1.537740   2.140069   2.559692
    18  H    3.735772   2.514005   2.185147   2.512146   3.513591
    19  H    3.893239   3.243854   2.192999   3.070517   2.819473
    20  H    4.321493   3.734134   2.192186   2.463387   2.844351
                   11         12         13         14         15
    11  H    0.000000
    12  H    1.756446   0.000000
    13  C    2.154604   2.159283   0.000000
    14  H    3.081945   2.519749   1.095659   0.000000
    15  H    2.469320   2.509540   1.096120   1.765758   0.000000
    16  H    2.535790   3.080590   1.097369   1.769717   1.769991
    17  C    3.491214   2.782396   3.157658   2.896844   4.155582
    18  H    4.322604   3.785112   4.154127   3.900666   5.190672
    19  H    3.783426   2.594141   3.532615   3.173841   4.367475
    20  H    3.861179   3.163493   2.866372   2.314391   3.877248
                   16         17         18         19         20
    16  H    0.000000
    17  C    3.525821   0.000000
    18  H    4.356092   1.096894   0.000000
    19  H    4.164730   1.096916   1.770911   0.000000
    20  H    3.141850   1.095219   1.766525   1.766746   0.000000
 Stoichiometry    C6H14
 Framework group  C1[X(C6H14)]
 Deg. of freedom    54
 Full point group                 C1      NOp   1
 Largest Abelian subgroup         C1      NOp   1
 Largest concise Abelian subgroup C1      NOp   1
                         Standard orientation:                         
 ---------------------------------------------------------------------
 Center     Atomic      Atomic             Coordinates (Angstroms)
 Number     Number       Type             X           Y           Z
 ---------------------------------------------------------------------
      1          6           0        2.170894   -0.579519   -0.561505
      2          1           0        2.283965    0.281031   -1.230495
      3          1           0        1.677304   -1.378005   -1.126847
      4          1           0        3.177784   -0.931733   -0.309452
      5          6           0        1.394695   -0.216200    0.711716
      6          1           0        1.351977   -1.099454    1.364648
      7          1           0        1.961826    0.544010    1.267220
      8          6           0       -0.045800    0.306684    0.504014
      9          1           0       -0.443896    0.509187    1.511101
     10          6           0       -0.960765   -0.759577   -0.133800
     11          1           0       -0.799582   -1.714476    0.386782
     12          1           0       -0.659170   -0.927269   -1.177088
     13          6           0       -2.456268   -0.422632   -0.091599
     14          1           0       -2.691351    0.475036   -0.674177
     15          1           0       -3.055151   -1.244173   -0.501340
     16          1           0       -2.793395   -0.247800    0.937963
     17          6           0       -0.068220    1.635631   -0.269317
     18          1           0        0.608640    2.367487    0.188312
     19          1           0        0.243513    1.500989   -1.312350
     20          1           0       -1.069674    2.078857   -0.281331
 ---------------------------------------------------------------------
 Rotational constants (GHZ):      5.1958820      2.0826366      1.7771669
 Leave Link  202 at Fri Sep 18 13:32:48 2015, MaxMem=  402653184 cpu:       0.0
 (Enter /share/apps/g09/l601.exe)
 Copying SCF densities to generalized density rwf, IOpCl= 0 IROHF=0.

 **********************************************************************

            Population analysis using the SCF density.

 **********************************************************************

 Orbital symmetries:
       Occupied  (A) (A) (A) (A) (A) (A) (A) (A) (A) (A) (A) (A)
                 (A) (A) (A) (A) (A) (A) (A) (A) (A) (A) (A) (A)
                 (A)
       Virtual   (A) (A) (A) (A) (A) (A) (A) (A) (A) (A) (A) (A)
                 (A) (A) (A) (A) (A) (A) (A) (A) (A) (A) (A) (A)
                 (A) (A) (A) (A) (A) (A) (A) (A) (A) (A) (A) (A)
                 (A) (A) (A) (A) (A) (A) (A) (A) (A) (A) (A) (A)
                 (A) (A) (A) (A) (A) (A) (A) (A) (A) (A) (A) (A)
                 (A) (A) (A) (A) (A) (A) (A) (A) (A) (A) (A) (A)
                 (A) (A) (A) (A) (A) (A) (A) (A) (A) (A) (A) (A)
                 (A) (A) (A) (A) (A) (A) (A) (A) (A)
 The electronic state is 1-A.
 Alpha  occ. eigenvalues --  -10.18097 -10.17458 -10.17424 -10.16979 -10.16884
 Alpha  occ. eigenvalues --  -10.16748  -0.80623  -0.74160  -0.70520  -0.64366
 Alpha  occ. eigenvalues --   -0.60518  -0.53677  -0.45981  -0.44532  -0.43734
 Alpha  occ. eigenvalues --   -0.41476  -0.38345  -0.37825  -0.37400  -0.36166
 Alpha  occ. eigenvalues --   -0.35007  -0.33043  -0.31061  -0.30677  -0.30162
 Alpha virt. eigenvalues --    0.08309   0.11649   0.12389   0.12899   0.14953
 Alpha virt. eigenvalues --    0.16041   0.16115   0.17242   0.17665   0.18500
 Alpha virt. eigenvalues --    0.19086   0.21139   0.22176   0.22969   0.23981
 Alpha virt. eigenvalues --    0.24741   0.26451   0.27885   0.29200   0.49750
 Alpha virt. eigenvalues --    0.51192   0.51455   0.52178   0.54912   0.57051
 Alpha virt. eigenvalues --    0.59202   0.62738   0.63866   0.67063   0.68316
 Alpha virt. eigenvalues --    0.69013   0.74211   0.77124   0.82440   0.83531
 Alpha virt. eigenvalues --    0.86088   0.86762   0.88712   0.88915   0.89951
 Alpha virt. eigenvalues --    0.90376   0.91918   0.93781   0.94210   0.96113
 Alpha virt. eigenvalues --    0.97285   0.98832   0.99981   1.01109   1.02777
 Alpha virt. eigenvalues --    1.04086   1.05799   1.27813   1.30221   1.42122
 Alpha virt. eigenvalues --    1.42553   1.57816   1.60261   1.62520   1.68410
 Alpha virt. eigenvalues --    1.72342   1.73594   1.77781   1.83189   1.89358
 Alpha virt. eigenvalues --    1.95139   1.96555   1.97339   2.00540   2.03841
 Alpha virt. eigenvalues --    2.08841   2.11364   2.13555   2.16319   2.28660
 Alpha virt. eigenvalues --    2.30225   2.31044   2.33342   2.34537   2.36384
 Alpha virt. eigenvalues --    2.41665   2.48261   2.55706   2.61441   2.68361
 Alpha virt. eigenvalues --    2.74403   2.78322   4.11087   4.21581   4.27183
 Alpha virt. eigenvalues --    4.41040   4.44557   4.59539
          Condensed to atoms (all electrons):
              1          2          3          4          5          6
     1  C    5.073819   0.378558   0.378290   0.373153   0.373294  -0.040799
     2  H    0.378558   0.574190  -0.032760  -0.031649  -0.035130   0.005254
     3  H    0.378290  -0.032760   0.573446  -0.031508  -0.035182  -0.004199
     4  H    0.373153  -0.031649  -0.031508   0.579317  -0.028068  -0.003208
     5  C    0.373294  -0.035130  -0.035182  -0.028068   4.995953   0.370503
     6  H   -0.040799   0.005254  -0.004199  -0.003208   0.370503   0.617151
     7  H   -0.041089  -0.004081   0.005269  -0.003369   0.369121  -0.037344
     8  C   -0.042444  -0.005236  -0.005267   0.004350   0.387330  -0.035485
     9  H    0.005430   0.000021   0.000011  -0.000144  -0.042654  -0.003719
    10  C   -0.006655  -0.000434   0.003894   0.000076  -0.043226  -0.006356
    11  H   -0.000713   0.000078   0.000647  -0.000049  -0.004131   0.006043
    12  H    0.002768   0.000186   0.001803  -0.000043  -0.005049  -0.000180
    13  C    0.000149  -0.000015  -0.000099  -0.000001   0.004132   0.000000
    14  H   -0.000010  -0.000001   0.000006   0.000000   0.000049   0.000001
    15  H    0.000003   0.000000   0.000007   0.000000  -0.000136  -0.000005
    16  H    0.000004   0.000000   0.000000   0.000000   0.000019  -0.000007
    17  C   -0.006562   0.003735  -0.000263   0.000048  -0.049362   0.005848
    18  H   -0.000403   0.000349   0.000057  -0.000036  -0.004136   0.000005
    19  H    0.002792   0.001991   0.000157  -0.000072  -0.005981  -0.000048
    20  H    0.000099  -0.000105  -0.000017   0.000000   0.004833  -0.000173
              7          8          9         10         11         12
     1  C   -0.041089  -0.042444   0.005430  -0.006655  -0.000713   0.002768
     2  H   -0.004081  -0.005236   0.000021  -0.000434   0.000078   0.000186
     3  H    0.005269  -0.005267   0.000011   0.003894   0.000647   0.001803
     4  H   -0.003369   0.004350  -0.000144   0.000076  -0.000049  -0.000043
     5  C    0.369121   0.387330  -0.042654  -0.043226  -0.004131  -0.005049
     6  H   -0.037344  -0.035485  -0.003719  -0.006356   0.006043  -0.000180
     7  H    0.619138  -0.034251  -0.003993   0.005410   0.000052  -0.000104
     8  C   -0.034251   4.858918   0.375008   0.391310  -0.039409  -0.036352
     9  H   -0.003993   0.375008   0.651673  -0.049997  -0.003109   0.006494
    10  C    0.005410   0.391310  -0.049997   4.992736   0.372268   0.371034
    11  H    0.000052  -0.039409  -0.003109   0.372268   0.617034  -0.039206
    12  H   -0.000104  -0.036352   0.006494   0.371034  -0.039206   0.611904
    13  C   -0.000155  -0.039129  -0.006042   0.371147  -0.039273  -0.039584
    14  H    0.000003  -0.005165  -0.000200  -0.033136   0.005164  -0.004701
    15  H    0.000002   0.004046   0.000011  -0.027849  -0.003666  -0.002207
    16  H   -0.000007  -0.004766   0.006294  -0.035809  -0.003973   0.005301
    17  C   -0.005667   0.375715  -0.048830  -0.051083   0.005736  -0.008166
    18  H    0.005061  -0.030670  -0.002854   0.005047  -0.000177  -0.000008
    19  H   -0.000156  -0.033329   0.005840  -0.005953   0.000015   0.005552
    20  H   -0.000064  -0.028610  -0.004384  -0.004193  -0.000046  -0.000105
             13         14         15         16         17         18
     1  C    0.000149  -0.000010   0.000003   0.000004  -0.006562  -0.000403
     2  H   -0.000015  -0.000001   0.000000   0.000000   0.003735   0.000349
     3  H   -0.000099   0.000006   0.000007   0.000000  -0.000263   0.000057
     4  H   -0.000001   0.000000   0.000000   0.000000   0.000048  -0.000036
     5  C    0.004132   0.000049  -0.000136   0.000019  -0.049362  -0.004136
     6  H    0.000000   0.000001  -0.000005  -0.000007   0.005848   0.000005
     7  H   -0.000155   0.000003   0.000002  -0.000007  -0.005667   0.005061
     8  C   -0.039129  -0.005165   0.004046  -0.004766   0.375715  -0.030670
     9  H   -0.006042  -0.000200   0.000011   0.006294  -0.048830  -0.002854
    10  C    0.371147  -0.033136  -0.027849  -0.035809  -0.051083   0.005047
    11  H   -0.039273   0.005164  -0.003666  -0.003973   0.005736  -0.000177
    12  H   -0.039584  -0.004701  -0.002207   0.005301  -0.008166  -0.000008
    13  C    5.073063   0.377519   0.371866   0.376341  -0.003433   0.000042
    14  H    0.377519   0.574115  -0.031447  -0.032918   0.002415  -0.000113
    15  H    0.371866  -0.031447   0.579814  -0.031468   0.000065   0.000001
    16  H    0.376341  -0.032918  -0.031468   0.580884  -0.000514  -0.000025
    17  C   -0.003433   0.002415   0.000065  -0.000514   5.119301   0.369670
    18  H    0.000042  -0.000113   0.000001  -0.000025   0.369670   0.582571
    19  H   -0.000291   0.000292  -0.000019   0.000071   0.372717  -0.032127
    20  H    0.001905   0.002829  -0.000084   0.000339   0.371299  -0.030610
             19         20
     1  C    0.002792   0.000099
     2  H    0.001991  -0.000105
     3  H    0.000157  -0.000017
     4  H   -0.000072   0.000000
     5  C   -0.005981   0.004833
     6  H   -0.000048  -0.000173
     7  H   -0.000156  -0.000064
     8  C   -0.033329  -0.028610
     9  H    0.005840  -0.004384
    10  C   -0.005953  -0.004193
    11  H    0.000015  -0.000046
    12  H    0.005552  -0.000105
    13  C   -0.000291   0.001905
    14  H    0.000292   0.002829
    15  H   -0.000019  -0.000084
    16  H    0.000071   0.000339
    17  C    0.372717   0.371299
    18  H   -0.032127  -0.030610
    19  H    0.579469  -0.032226
    20  H   -0.032226   0.575529
 Mulliken atomic charges:
              1
     1  C   -0.449683
     2  H    0.145048
     3  H    0.145711
     4  H    0.141203
     5  C   -0.252180
     6  H    0.126718
     7  H    0.126225
     8  C   -0.056566
     9  H    0.115145
    10  C   -0.248230
    11  H    0.126715
    12  H    0.130665
    13  C   -0.448142
    14  H    0.145297
    15  H    0.141066
    16  H    0.140232
    17  C   -0.452668
    18  H    0.138357
    19  H    0.141306
    20  H    0.143785
 Sum of Mulliken atomic charges =   0.00000
 Mulliken charges with hydrogens summed into heavy atoms:
              1
     1  C   -0.017722
     5  C    0.000762
     8  C    0.058579
    10  C    0.009150
    13  C   -0.021547
    17  C   -0.029222
 Sum of Mulliken charges with hydrogens summed into heavy atoms =   0.00000
 Electronic spatial extent (au):  <R**2>=            804.3052
 Charge=              0.0000 electrons
 Dipole moment (field-independent basis, Debye):
    X=             -0.0040    Y=             -0.0265    Z=              0.0505  Tot=              0.0572
 Quadrupole moment (field-independent basis, Debye-Ang):
   XX=            -41.8858   YY=            -41.4807   ZZ=            -41.3554
   XY=              0.1407   XZ=              0.1355   YZ=              0.0218
 Traceless Quadrupole moment (field-independent basis, Debye-Ang):
   XX=             -0.3118   YY=              0.0933   ZZ=              0.2186
   XY=              0.1407   XZ=              0.1355   YZ=              0.0218
 Octapole moment (field-independent basis, Debye-Ang**2):
  XXX=              1.5805  YYY=             -1.1415  ZZZ=              0.0432  XYY=             -0.1534
  XXY=              0.4176  XXZ=              0.6338  XZZ=             -0.6677  YZZ=              0.0297
  YYZ=              0.5108  XYZ=             -0.1706
 Hexadecapole moment (field-independent basis, Debye-Ang**3):
 XXXX=           -707.9800 YYYY=           -270.6427 ZZZZ=           -141.9371 XXXY=             -0.5122
 XXXZ=              3.3921 YYYX=              1.6099 YYYZ=              1.4797 ZZZX=             -1.3136
 ZZZY=             -0.3239 XXYY=           -158.6085 XXZZ=           -141.4867 YYZZ=            -67.9810
 XXYZ=             -0.1969 YYXZ=              1.9117 ZZXY=              1.1138
 N-N= 2.574962217781D+02 E-N=-1.061923496592D+03  KE= 2.346220003390D+02
 No NMR shielding tensors so no spin-rotation constants.
 Leave Link  601 at Fri Sep 18 13:32:48 2015, MaxMem=  402653184 cpu:       0.3
 (Enter /share/apps/g09/l9999.exe)
 1\1\GINC-COMPUTE-0-10\FOpt\RB3LYP\6-31G(d)\C6H14\HETANJIN\18-Sep-2015\
 0\\#p B3LYP/6-31G(d) opt=tight int=ultrafine\\using B3LYP/6-31G(d) to 
 do opt and freq calc.\\0,1\C,2.1671692925,-0.5873219925,-0.5687125268\
 H,2.2842658252,0.2781389589,-1.2306378885\H,1.6688720876,-1.3784534449
 ,-1.1402310522\H,3.172379289,-0.9469609881,-0.3204660126\C,1.393965410
 1,-0.2304666345,0.70815307\H,1.3470873347,-1.1188707254,1.3537705667\H
 ,1.9655912636,0.5220820572,1.2694520485\C,-0.0438983585,0.3017706512,0
 .5060491345\H,-0.4400794576,0.4980186879,1.51512715\C,-0.965049453,-0.
 7542822255,-0.1397944771\H,-0.8085194823,-1.7143129126,0.372706704\H,-
 0.6652115894,-0.9149070348,-1.1846999117\C,-2.4587025579,-0.4097575211
 ,-0.0934998426\H,-2.6894866799,0.4939522576,-0.6684047894\H,-3.0622866
 107,-1.2246744072,-0.5095223631\H,-2.7940454892,-0.2416894279,0.937770
 0437\C,-0.0598849841,1.6371921514,-0.2562092436\H,0.6212361308,2.36161
 71199,0.2068883646\H,0.2502664278,1.5095589907,-1.3005940915\H,-1.0589
 763987,2.0858174395,-0.2636748832\\Version=EM64L-G09RevA.01\State=1-A\
 HF=-237.0819265\RMSD=8.206e-09\RMSF=3.439e-07\Dipole=-0.0016056,-0.010
 5706,0.0197798\Quadrupole=-0.2305387,0.0679576,0.1625811,0.1053501,0.1
 020542,0.0147905\PG=C01 [X(C6H14)]\\@


 IT PROBABLY IS NOT POSSIBLE FOR A SCIENTIST TO INTERROGATE NATURE 
 FROM A WHOLLY DISINTERESTED VIEWPOINT.
 EVEN IF HE HAS NO PARTICULAR AXE TO GRIND, HE IS LIKELY TO HAVE 
 A DISTINCTIVE WAY OF VIEWING NATURE.

                                                   -- JOHN LOSEE
 Job cpu time:  0 days  0 hours 19 minutes  0.7 seconds.
 File lengths (MBytes):  RWF=     15 Int=      0 D2E=      0 Chk=      2 Scr=      1
 Normal termination of Gaussian 09 at Fri Sep 18 13:32:48 2015.
