 Entering Gaussian System, Link 0=/home/hetanjin/apps/g09D01/g09/g09
 Input=C6H14_3_r007_C13_2_opt_B3L.gjf
 Output=C6H14_3_r007_C13_2_opt_B3L.log
 Initial command:
 /home/hetanjin/apps/g09D01/g09/l1.exe "/state/partition1/Gau-4164.inp" -scrdir="/state/partition1/"
 Entering Link 1 = /home/hetanjin/apps/g09D01/g09/l1.exe PID=      4165.
  
 Copyright (c) 1988,1990,1992,1993,1995,1998,2003,2009,2013,
            Gaussian, Inc.  All Rights Reserved.
  
 This is part of the Gaussian(R) 09 program.  It is based on
 the Gaussian(R) 03 system (copyright 2003, Gaussian, Inc.),
 the Gaussian(R) 98 system (copyright 1998, Gaussian, Inc.),
 the Gaussian(R) 94 system (copyright 1995, Gaussian, Inc.),
 the Gaussian 92(TM) system (copyright 1992, Gaussian, Inc.),
 the Gaussian 90(TM) system (copyright 1990, Gaussian, Inc.),
 the Gaussian 88(TM) system (copyright 1988, Gaussian, Inc.),
 the Gaussian 86(TM) system (copyright 1986, Carnegie Mellon
 University), and the Gaussian 82(TM) system (copyright 1983,
 Carnegie Mellon University). Gaussian is a federally registered
 trademark of Gaussian, Inc.
  
 This software contains proprietary and confidential information,
 including trade secrets, belonging to Gaussian, Inc.
  
 This software is provided under written license and may be
 used, copied, transmitted, or stored only in accord with that
 written license.
  
 The following legend is applicable only to US Government
 contracts under FAR:
  
                    RESTRICTED RIGHTS LEGEND
  
 Use, reproduction and disclosure by the US Government is
 subject to restrictions as set forth in subparagraphs (a)
 and (c) of the Commercial Computer Software - Restricted
 Rights clause in FAR 52.227-19.
  
 Gaussian, Inc.
 340 Quinnipiac St., Bldg. 40, Wallingford CT 06492
  
  
 ---------------------------------------------------------------
 Warning -- This program may not be used in any manner that
 competes with the business of Gaussian, Inc. or will provide
 assistance to any competitor of Gaussian, Inc.  The licensee
 of this program is prohibited from giving any competitor of
 Gaussian, Inc. access to this program.  By using this program,
 the user acknowledges that Gaussian, Inc. is engaged in the
 business of creating and licensing software in the field of
 computational chemistry and represents and warrants to the
 licensee that it is not a competitor of Gaussian, Inc. and that
 it will not use this program in any manner prohibited above.
 ---------------------------------------------------------------
  

 Cite this work as:
 Gaussian 09, Revision D.01,
 M. J. Frisch, G. W. Trucks, H. B. Schlegel, G. E. Scuseria, 
 M. A. Robb, J. R. Cheeseman, G. Scalmani, V. Barone, B. Mennucci, 
 G. A. Petersson, H. Nakatsuji, M. Caricato, X. Li, H. P. Hratchian, 
 A. F. Izmaylov, J. Bloino, G. Zheng, J. L. Sonnenberg, M. Hada, 
 M. Ehara, K. Toyota, R. Fukuda, J. Hasegawa, M. Ishida, T. Nakajima, 
 Y. Honda, O. Kitao, H. Nakai, T. Vreven, J. A. Montgomery, Jr., 
 J. E. Peralta, F. Ogliaro, M. Bearpark, J. J. Heyd, E. Brothers, 
 K. N. Kudin, V. N. Staroverov, T. Keith, R. Kobayashi, J. Normand, 
 K. Raghavachari, A. Rendell, J. C. Burant, S. S. Iyengar, J. Tomasi, 
 M. Cossi, N. Rega, J. M. Millam, M. Klene, J. E. Knox, J. B. Cross, 
 V. Bakken, C. Adamo, J. Jaramillo, R. Gomperts, R. E. Stratmann, 
 O. Yazyev, A. J. Austin, R. Cammi, C. Pomelli, J. W. Ochterski, 
 R. L. Martin, K. Morokuma, V. G. Zakrzewski, G. A. Voth, 
 P. Salvador, J. J. Dannenberg, S. Dapprich, A. D. Daniels, 
 O. Farkas, J. B. Foresman, J. V. Ortiz, J. Cioslowski, 
 and D. J. Fox, Gaussian, Inc., Wallingford CT, 2013.
 
 ******************************************
 Gaussian 09:  ES64L-G09RevD.01 24-Apr-2013
                 7-Nov-2015 
 ******************************************
 %mem=6GB
 %nprocshared=4
 Will use up to    4 processors via shared memory.
 ----------------------------------------------
 #p B3LYP/6-31G(d) opt=tight int=ultrafine freq
 ----------------------------------------------
 1/7=10,14=-1,18=20,19=15,26=4,38=1/1,3;
 2/9=110,12=2,17=6,18=5,40=1/2;
 3/5=1,6=6,7=1,11=2,16=1,25=1,30=1,71=1,74=-5,75=-5/1,2,3;
 4//1;
 5/5=2,38=5/2;
 6/7=2,8=2,9=2,10=2,28=1/1;
 7//1,2,3,16;
 1/7=10,14=-1,18=20,19=15,26=4/3(2);
 2/9=110/2;
 99//99;
 2/9=110/2;
 3/5=1,6=6,7=1,11=2,16=1,25=1,30=1,71=1,74=-5,75=-5/1,2,3;
 4/5=5,16=3,69=1/1;
 5/5=2,38=5/2;
 7//1,2,3,16;
 1/7=10,14=-1,18=20,19=15,26=4/3(-5);
 2/9=110/2;
 6/7=2,8=2,9=2,10=2,19=2,28=1/1;
 99/9=1/99;
 Leave Link    1 at Sat Nov  7 02:05:18 2015, MaxMem=   805306368 cpu:         0.2
 (Enter /home/hetanjin/apps/g09D01/g09/l101.exe)
 ---------------------------------------------
 using B3LYP/6-31G(d) to do opt and freq calc.
 ---------------------------------------------
 Symbolic Z-matrix:
 Charge =  0 Multiplicity = 2
 C                    -2.58543  -0.17306  -0.29185 
 H                    -2.56946  -0.21059  -1.38848 
 H                    -2.79867   0.86056   0.00159 
 H                    -3.42636  -0.7886    0.04788 
 C                    -1.2643   -0.68112   0.2975 
 H                    -1.30509  -0.61825   1.39536 
 H                    -1.16192  -1.74928   0.0599 
 C                     0.        0.05117  -0.19883 
 H                     0.        0.00139  -1.30033 
 C                     1.2643   -0.68112   0.29751 
 H                     1.16193  -1.74928   0.05992 
 H                     1.30509  -0.61823   1.39536 
 C                     2.58543  -0.17306  -0.29185 
 H                     3.42636  -0.78859   0.04789 
 H                     2.56946  -0.21061  -1.38848 
 C                    0.         1.53336   0.20729 
 H                    -0.88093   2.05894  -0.1759 
 H                    -0.00001   1.63604   1.30101 
 H                     0.88093   2.05894  -0.17589 
 
 NAtoms=     19 NQM=       19 NQMF=       0 NMMI=      0 NMMIF=      0
                NMic=       0 NMicF=      0.
                    Isotopes and Nuclear Properties:
 (Nuclear quadrupole moments (NQMom) in fm**2, nuclear magnetic moments (NMagM)
  in nuclear magnetons)

  Atom         1           2           3           4           5           6           7           8           9          10
 IAtWgt=          12           1           1           1          12           1           1          12           1          12
 AtmWgt=  12.0000000   1.0078250   1.0078250   1.0078250  12.0000000   1.0078250   1.0078250  12.0000000   1.0078250  12.0000000
 NucSpn=           0           1           1           1           0           1           1           0           1           0
 AtZEff=   0.0000000   0.0000000   0.0000000   0.0000000   0.0000000   0.0000000   0.0000000   0.0000000   0.0000000   0.0000000
 NQMom=    0.0000000   0.0000000   0.0000000   0.0000000   0.0000000   0.0000000   0.0000000   0.0000000   0.0000000   0.0000000
 NMagM=    0.0000000   2.7928460   2.7928460   2.7928460   0.0000000   2.7928460   2.7928460   0.0000000   2.7928460   0.0000000
 AtZNuc=   6.0000000   1.0000000   1.0000000   1.0000000   6.0000000   1.0000000   1.0000000   6.0000000   1.0000000   6.0000000

  Atom        11          12          13          14          15          16          17          18          19
 IAtWgt=           1           1          12           1           1          12           1           1           1
 AtmWgt=   1.0078250   1.0078250  12.0000000   1.0078250   1.0078250  12.0000000   1.0078250   1.0078250   1.0078250
 NucSpn=           1           1           0           1           1           0           1           1           1
 AtZEff=   0.0000000   0.0000000   0.0000000   0.0000000   0.0000000   0.0000000   0.0000000   0.0000000   0.0000000
 NQMom=    0.0000000   0.0000000   0.0000000   0.0000000   0.0000000   0.0000000   0.0000000   0.0000000   0.0000000
 NMagM=    2.7928460   2.7928460   0.0000000   2.7928460   2.7928460   0.0000000   2.7928460   2.7928460   2.7928460
 AtZNuc=   1.0000000   1.0000000   6.0000000   1.0000000   1.0000000   6.0000000   1.0000000   1.0000000   1.0000000
 Leave Link  101 at Sat Nov  7 02:05:18 2015, MaxMem=   805306368 cpu:         0.7
 (Enter /home/hetanjin/apps/g09D01/g09/l103.exe)

 GradGradGradGradGradGradGradGradGradGradGradGradGradGradGradGradGradGrad
 Berny optimization.
 Initialization pass.
                           ----------------------------
                           !    Initial Parameters    !
                           ! (Angstroms and Degrees)  !
 --------------------------                            --------------------------
 ! Name  Definition              Value          Derivative Info.                !
 --------------------------------------------------------------------------------
 ! R1    R(1,2)                  1.0974         estimate D2E/DX2                !
 ! R2    R(1,3)                  1.0954         estimate D2E/DX2                !
 ! R3    R(1,4)                  1.0961         estimate D2E/DX2                !
 ! R4    R(1,5)                  1.5332         estimate D2E/DX2                !
 ! R5    R(5,6)                  1.1004         estimate D2E/DX2                !
 ! R6    R(5,7)                  1.099          estimate D2E/DX2                !
 ! R7    R(5,8)                  1.5431         estimate D2E/DX2                !
 ! R8    R(8,9)                  1.1026         estimate D2E/DX2                !
 ! R9    R(8,10)                 1.5431         estimate D2E/DX2                !
 ! R10   R(8,16)                 1.5368         estimate D2E/DX2                !
 ! R11   R(10,11)                1.099          estimate D2E/DX2                !
 ! R12   R(10,12)                1.1004         estimate D2E/DX2                !
 ! R13   R(10,13)                1.5332         estimate D2E/DX2                !
 ! R14   R(13,14)                1.0961         estimate D2E/DX2                !
 ! R15   R(13,15)                1.0974         estimate D2E/DX2                !
 ! R16   R(16,17)                1.095          estimate D2E/DX2                !
 ! R17   R(16,18)                1.0985         estimate D2E/DX2                !
 ! R18   R(16,19)                1.095          estimate D2E/DX2                !
 ! A1    A(2,1,3)              107.6254         estimate D2E/DX2                !
 ! A2    A(2,1,4)              107.559          estimate D2E/DX2                !
 ! A3    A(2,1,5)              111.115          estimate D2E/DX2                !
 ! A4    A(3,1,4)              107.3082         estimate D2E/DX2                !
 ! A5    A(3,1,5)              112.1749         estimate D2E/DX2                !
 ! A6    A(4,1,5)              110.8451         estimate D2E/DX2                !
 ! A7    A(1,5,6)              109.4277         estimate D2E/DX2                !
 ! A8    A(1,5,7)              108.6152         estimate D2E/DX2                !
 ! A9    A(1,5,8)              115.1572         estimate D2E/DX2                !
 ! A10   A(6,5,7)              105.9422         estimate D2E/DX2                !
 ! A11   A(6,5,8)              108.915          estimate D2E/DX2                !
 ! A12   A(7,5,8)              108.3832         estimate D2E/DX2                !
 ! A13   A(5,8,9)              107.4517         estimate D2E/DX2                !
 ! A14   A(5,8,10)             110.0384         estimate D2E/DX2                !
 ! A15   A(5,8,16)             111.882          estimate D2E/DX2                !
 ! A16   A(9,8,10)             107.4518         estimate D2E/DX2                !
 ! A17   A(9,8,16)             107.9103         estimate D2E/DX2                !
 ! A18   A(10,8,16)            111.882          estimate D2E/DX2                !
 ! A19   A(8,10,11)            108.3833         estimate D2E/DX2                !
 ! A20   A(8,10,12)            108.915          estimate D2E/DX2                !
 ! A21   A(8,10,13)            115.1571         estimate D2E/DX2                !
 ! A22   A(11,10,12)           105.9423         estimate D2E/DX2                !
 ! A23   A(11,10,13)           108.6152         estimate D2E/DX2                !
 ! A24   A(12,10,13)           109.4277         estimate D2E/DX2                !
 ! A25   A(10,13,14)           110.8451         estimate D2E/DX2                !
 ! A26   A(10,13,15)           111.1149         estimate D2E/DX2                !
 ! A27   A(14,13,15)           107.559          estimate D2E/DX2                !
 ! A28   A(8,16,17)            111.7423         estimate D2E/DX2                !
 ! A29   A(8,16,18)            110.6857         estimate D2E/DX2                !
 ! A30   A(8,16,19)            111.7423         estimate D2E/DX2                !
 ! A31   A(17,16,18)           107.6699         estimate D2E/DX2                !
 ! A32   A(17,16,19)           107.12           estimate D2E/DX2                !
 ! A33   A(18,16,19)           107.67           estimate D2E/DX2                !
 ! D1    D(2,1,5,6)            179.2076         estimate D2E/DX2                !
 ! D2    D(2,1,5,7)            -65.5701         estimate D2E/DX2                !
 ! D3    D(2,1,5,8)             56.1554         estimate D2E/DX2                !
 ! D4    D(3,1,5,6)             58.6833         estimate D2E/DX2                !
 ! D5    D(3,1,5,7)            173.9055         estimate D2E/DX2                !
 ! D6    D(3,1,5,8)            -64.369          estimate D2E/DX2                !
 ! D7    D(4,1,5,6)            -61.2484         estimate D2E/DX2                !
 ! D8    D(4,1,5,7)             53.9738         estimate D2E/DX2                !
 ! D9    D(4,1,5,8)            175.6993         estimate D2E/DX2                !
 ! D10   D(1,5,8,9)            -54.8991         estimate D2E/DX2                !
 ! D11   D(1,5,8,10)          -171.5975         estimate D2E/DX2                !
 ! D12   D(1,5,8,16)            63.3728         estimate D2E/DX2                !
 ! D13   D(6,5,8,9)           -178.2239         estimate D2E/DX2                !
 ! D14   D(6,5,8,10)            65.0777         estimate D2E/DX2                !
 ! D15   D(6,5,8,16)           -59.952          estimate D2E/DX2                !
 ! D16   D(7,5,8,9)             66.9516         estimate D2E/DX2                !
 ! D17   D(7,5,8,10)           -49.7467         estimate D2E/DX2                !
 ! D18   D(7,5,8,16)          -174.7765         estimate D2E/DX2                !
 ! D19   D(5,8,10,11)           49.746          estimate D2E/DX2                !
 ! D20   D(5,8,10,12)          -65.0785         estimate D2E/DX2                !
 ! D21   D(5,8,10,13)          171.5967         estimate D2E/DX2                !
 ! D22   D(9,8,10,11)          -66.9523         estimate D2E/DX2                !
 ! D23   D(9,8,10,12)          178.2232         estimate D2E/DX2                !
 ! D24   D(9,8,10,13)           54.8984         estimate D2E/DX2                !
 ! D25   D(16,8,10,11)         174.7757         estimate D2E/DX2                !
 ! D26   D(16,8,10,12)          59.9512         estimate D2E/DX2                !
 ! D27   D(16,8,10,13)         -63.3736         estimate D2E/DX2                !
 ! D28   D(5,8,16,17)          -57.9911         estimate D2E/DX2                !
 ! D29   D(5,8,16,18)           62.0011         estimate D2E/DX2                !
 ! D30   D(5,8,16,19)         -178.0067         estimate D2E/DX2                !
 ! D31   D(9,8,16,17)           60.0075         estimate D2E/DX2                !
 ! D32   D(9,8,16,18)          179.9997         estimate D2E/DX2                !
 ! D33   D(9,8,16,19)          -60.0081         estimate D2E/DX2                !
 ! D34   D(10,8,16,17)         178.0062         estimate D2E/DX2                !
 ! D35   D(10,8,16,18)         -62.0016         estimate D2E/DX2                !
 ! D36   D(10,8,16,19)          57.9905         estimate D2E/DX2                !
 ! D37   D(8,10,13,14)        -175.6996         estimate D2E/DX2                !
 ! D38   D(8,10,13,15)         -56.1557         estimate D2E/DX2                !
 ! D39   D(11,10,13,14)        -53.9741         estimate D2E/DX2                !
 ! D40   D(11,10,13,15)         65.5698         estimate D2E/DX2                !
 ! D41   D(12,10,13,14)         61.2481         estimate D2E/DX2                !
 ! D42   D(12,10,13,15)       -179.208          estimate D2E/DX2                !
 --------------------------------------------------------------------------------
 Trust Radius=3.00D-01 FncErr=1.00D-07 GrdErr=1.00D-06
 Number of steps in this run=    103 maximum allowed number of steps=    114.
 GradGradGradGradGradGradGradGradGradGradGradGradGradGradGradGradGradGrad

 Leave Link  103 at Sat Nov  7 02:05:18 2015, MaxMem=   805306368 cpu:         0.0
 (Enter /home/hetanjin/apps/g09D01/g09/l202.exe)
                          Input orientation:                          
 ---------------------------------------------------------------------
 Center     Atomic      Atomic             Coordinates (Angstroms)
 Number     Number       Type             X           Y           Z
 ---------------------------------------------------------------------
      1          6           0       -2.585432   -0.173063   -0.291849
      2          1           0       -2.569458   -0.210592   -1.388477
      3          1           0       -2.798673    0.860561    0.001587
      4          1           0       -3.426358   -0.788597    0.047878
      5          6           0       -1.264298   -0.681121    0.297502
      6          1           0       -1.305088   -0.618252    1.395357
      7          1           0       -1.161923   -1.749281    0.059899
      8          6           0        0.000001    0.051166   -0.198829
      9          1           0        0.000003    0.001388   -1.300329
     10          6           0        1.264300   -0.681115    0.297508
     11          1           0        1.161927   -1.749278    0.059916
     12          1           0        1.305092   -0.618234    1.395362
     13          6           0        2.585433   -0.173062   -0.291851
     14          1           0        3.426361   -0.788588    0.047886
     15          1           0        2.569459   -0.210609   -1.388479
     16          6           0       -0.000004    1.533363    0.207287
     17          1           0       -0.880930    2.058937   -0.175897
     18          1           0       -0.000012    1.636037    1.301012
     19          1           0        0.880926    2.058939   -0.175885
 ---------------------------------------------------------------------
                    Distance matrix (angstroms):
                    1          2          3          4          5
     1  C    0.000000
     2  H    1.097386   0.000000
     3  H    1.095425   1.769798   0.000000
     4  H    1.096108   1.769600   1.765178   0.000000
     5  C    1.533249   2.183430   2.195144   2.179075   0.000000
     6  H    2.164287   3.084566   2.521959   2.518830   1.100410
     7  H    2.152805   2.538998   3.081173   2.459822   1.099046
     8  C    2.596805   2.843572   2.920251   3.536383   1.543062
     9  H    2.780636   2.579697   3.204021   3.765858   2.148800
    10  C    3.927581   4.214456   4.355696   4.698525   2.528598
    11  H    4.080550   4.288197   4.743523   4.687794   2.661574
    12  H    4.263923   4.788326   4.579337   4.922536   2.794820
    13  C    5.170865   5.270379   5.490271   6.052762   3.927581
    14  H    6.052763   6.192501   6.439944   6.852719   4.698525
    15  H    5.270380   5.138917   5.647701   6.192497   4.214452
    16  C    3.137748   3.491409   2.885745   4.142078   2.551572
    17  H    2.810800   3.077700   2.268335   3.825928   2.806955
    18  H    3.534748   4.152763   3.181567   4.380530   2.823946
    19  H    4.124429   4.304219   3.873894   5.168290   3.511981
                    6          7          8          9         10
     6  H    0.000000
     7  H    1.755896   0.000000
     8  C    2.166289   2.158383   0.000000
     9  H    3.058421   2.503025   1.102624   0.000000
    10  C    2.794813   2.661577   1.543061   2.148800   0.000000
    11  H    3.024696   2.323850   2.158384   2.503031   1.099046
    12  H    2.610180   3.024713   2.166288   3.058421   1.100410
    13  C    4.263921   4.080548   2.596804   2.780631   1.533250
    14  H    4.922530   4.687795   3.536382   3.765856   2.179075
    15  H    4.788322   4.288184   2.843573   2.579693   2.183430
    16  C    2.782841   3.485331   1.536827   2.149384   2.551572
    17  H    3.133064   3.825844   2.192649   2.504775   3.511981
    18  H    2.606519   3.788242   2.182049   3.072304   2.823951
    19  H    3.796684   4.327975   2.192649   2.504779   2.806951
                   11         12         13         14         15
    11  H    0.000000
    12  H    1.755897   0.000000
    13  C    2.152804   2.164287   0.000000
    14  H    2.459823   2.518828   1.096108   0.000000
    15  H    2.538995   3.084567   1.097387   1.769600   0.000000
    16  C    3.485331   2.782834   3.137755   4.142082   3.491425
    17  H    4.327976   3.796682   4.124432   5.168291   4.304228
    18  H    3.788242   2.606518   3.534767   4.380544   4.152788
    19  H    3.825844   3.133048   2.810804   3.825928   3.077723
                   16         17         18         19
    16  C    0.000000
    17  H    1.095029   0.000000
    18  H    1.098534   1.770910   0.000000
    19  H    1.095029   1.761856   1.770910   0.000000
 Stoichiometry    C6H13(2)
 Framework group  C1[X(C6H13)]
 Deg. of freedom    51
 Full point group                 C1      NOp   1
 Largest Abelian subgroup         C1      NOp   1
 Largest concise Abelian subgroup C1      NOp   1
                         Standard orientation:                         
 ---------------------------------------------------------------------
 Center     Atomic      Atomic             Coordinates (Angstroms)
 Number     Number       Type             X           Y           Z
 ---------------------------------------------------------------------
      1          6           0       -2.524268   -0.211267   -0.291817
      2          1           0       -2.507470   -0.248434   -1.388445
      3          1           0       -2.760271    0.817398    0.001619
      4          1           0       -3.351403   -0.845212    0.047910
      5          6           0       -1.192242   -0.690042    0.297534
      6          1           0       -1.234410   -0.628088    1.395389
      7          1           0       -1.066316   -1.755682    0.059931
      8          6           0        0.055586    0.069972   -0.198797
      9          1           0        0.056687    0.020207   -1.300297
     10          6           0        1.335740   -0.634225    0.297540
     11          1           0        1.256968   -1.704387    0.059948
     12          1           0        1.375134   -0.570459    1.395394
     13          6           0        2.645337   -0.097136   -0.291819
     14          1           0        3.499646   -0.693951    0.047918
     15          1           0        2.630196   -0.135026   -1.388447
     16          6           0        0.022866    1.551808    0.207319
     17          1           0       -0.869446    2.057811   -0.175865
     18          1           0        0.020592    1.654457    1.301044
     19          1           0        0.891981    2.096700   -0.175853
 ---------------------------------------------------------------------
 Rotational constants (GHZ):      6.5839600      1.8873958      1.6217873
 Leave Link  202 at Sat Nov  7 02:05:18 2015, MaxMem=   805306368 cpu:         0.1
 (Enter /home/hetanjin/apps/g09D01/g09/l301.exe)
 Standard basis: 6-31G(d) (6D, 7F)
 Ernie: Thresh=  0.10000D-02 Tol=  0.10000D-05 Strict=F.
 There are   116 symmetry adapted cartesian basis functions of A   symmetry.
 There are   116 symmetry adapted basis functions of A   symmetry.
   116 basis functions,   220 primitive gaussians,   116 cartesian basis functions
    25 alpha electrons       24 beta electrons
       nuclear repulsion energy       245.2815693629 Hartrees.
 IExCor=  402 DFT=T Ex+Corr=B3LYP ExCW=0 ScaHFX=  0.200000
 ScaDFX=  0.800000  0.720000  1.000000  0.810000 ScalE2=  1.000000  1.000000
 IRadAn=      5 IRanWt=     -1 IRanGd=            0 ICorTp=0 IEmpDi=  4
 NAtoms=   19 NActive=   19 NUniq=   19 SFac= 1.00D+00 NAtFMM=   60 NAOKFM=F Big=F
 Integral buffers will be    131072 words long.
 Raffenetti 2 integral format.
 Two-electron integral symmetry is turned on.
 Leave Link  301 at Sat Nov  7 02:05:18 2015, MaxMem=   805306368 cpu:         0.2
 (Enter /home/hetanjin/apps/g09D01/g09/l302.exe)
 NPDir=0 NMtPBC=     1 NCelOv=     1 NCel=       1 NClECP=     1 NCelD=      1
         NCelK=      1 NCelE2=     1 NClLst=     1 CellRange=     0.0.
 One-electron integrals computed using PRISM.
 NBasis=   116 RedAO= T EigKep=  3.75D-03  NBF=   116
 NBsUse=   116 1.00D-06 EigRej= -1.00D+00 NBFU=   116
 Precomputing XC quadrature grid using
 IXCGrd= 4 IRadAn=           5 IRanWt=          -1 IRanGd=           0 AccXCQ= 0.00D+00.
 Generated NRdTot=       0 NPtTot=           0 NUsed=           0 NTot=          32
 NSgBfM=   116   116   116   116   116 MxSgAt=    19 MxSgA2=    19.
 Leave Link  302 at Sat Nov  7 02:05:19 2015, MaxMem=   805306368 cpu:         2.0
 (Enter /home/hetanjin/apps/g09D01/g09/l303.exe)
 DipDrv:  MaxL=1.
 Leave Link  303 at Sat Nov  7 02:05:19 2015, MaxMem=   805306368 cpu:         0.1
 (Enter /home/hetanjin/apps/g09D01/g09/l401.exe)
 ExpMin= 1.61D-01 ExpMax= 3.05D+03 ExpMxC= 4.57D+02 IAcc=3 IRadAn=         5 AccDes= 0.00D+00
 Harris functional with IExCor=  402 and IRadAn=       5 diagonalized for initial guess.
 HarFok:  IExCor=  402 AccDes= 0.00D+00 IRadAn=         5 IDoV= 1 UseB2=F ITyADJ=14
 ICtDFT=  3500011 ScaDFX=  1.000000  1.000000  1.000000  1.000000
 FoFCou: FMM=F IPFlag=           0 FMFlag=      100000 FMFlg1=           0
         NFxFlg=           0 DoJE=T BraDBF=F KetDBF=T FulRan=T
         wScrn=  0.000000 ICntrl=     500 IOpCl=  0 I1Cent=   200000004 NGrid=           0
         NMat0=    1 NMatS0=      1 NMatT0=    0 NMatD0=    1 NMtDS0=    0 NMtDT0=    0
 Petite list used in FoFCou.
 Harris En= -236.439981162335    
 JPrj=0 DoOrth=F DoCkMO=F.
 Initial guess <Sx>= 0.0000 <Sy>= 0.0000 <Sz>= 0.5000 <S**2>= 0.7500 S= 0.5000
 Leave Link  401 at Sat Nov  7 02:05:22 2015, MaxMem=   805306368 cpu:         9.1
 (Enter /home/hetanjin/apps/g09D01/g09/l502.exe)
 UHF open shell SCF:
 Using DIIS extrapolation, IDIIS=  1040.
 Integral symmetry usage will be decided dynamically.
 Keep R1 and R2 ints in memory in canonical form, NReq=47059932.
 IVT=       60514 IEndB=       60514 NGot=   805306368 MDV=   759189273
 LenX=   759189273 LenY=   759175376
 Requested convergence on RMS density matrix=1.00D-08 within 128 cycles.
 Requested convergence on MAX density matrix=1.00D-06.
 Requested convergence on             energy=1.00D-06.
 No special actions if energy rises.
 FoFCou: FMM=F IPFlag=           0 FMFlag=           0 FMFlg1=           0
         NFxFlg=           0 DoJE=F BraDBF=F KetDBF=F FulRan=T
         wScrn=  0.000000 ICntrl=     600 IOpCl=  0 I1Cent=           0 NGrid=           0
         NMat0=    1 NMatS0=   6786 NMatT0=    0 NMatD0=    1 NMtDS0=    0 NMtDT0=    0
 Symmetry not used in FoFCou.
 Integral accuracy reduced to 1.0D-05 until final iterations.

 Cycle   1  Pass 0  IDiag  1:
 E= -236.152483879313    
 DIIS: error= 4.15D-02 at cycle   1 NSaved=   1.
 NSaved= 1 IEnMin= 1 EnMin= -236.152483879313     IErMin= 1 ErrMin= 4.15D-02
 ErrMax= 4.15D-02  0.00D+00 EMaxC= 1.00D-01 BMatC= 8.76D-01 BMatP= 8.76D-01
 IDIUse=3 WtCom= 5.85D-01 WtEn= 4.15D-01
 Coeff-Com:  0.100D+01
 Coeff-En:   0.100D+01
 Coeff:      0.100D+01
 Gap=     0.287 Goal=   None    Shift=    0.000
 Gap=     0.237 Goal=   None    Shift=    0.000
 GapD=    0.237 DampG=1.000 DampE=0.500 DampFc=0.5000 IDamp=-1.
 Damping current iteration by 5.00D-01
 RMSDP=9.56D-03 MaxDP=1.44D-01              OVMax= 1.84D-01

 Cycle   2  Pass 0  IDiag  1:
 E= -236.263548081717     Delta-E=       -0.111064202404 Rises=F Damp=T
 DIIS: error= 8.19D-03 at cycle   2 NSaved=   2.
 NSaved= 2 IEnMin= 2 EnMin= -236.263548081717     IErMin= 2 ErrMin= 8.19D-03
 ErrMax= 8.19D-03  0.00D+00 EMaxC= 1.00D-01 BMatC= 3.89D-02 BMatP= 8.76D-01
 IDIUse=3 WtCom= 9.18D-01 WtEn= 8.19D-02
 Coeff-Com:  0.705D-01 0.930D+00
 Coeff-En:   0.114D+00 0.886D+00
 Coeff:      0.741D-01 0.926D+00
 Gap=     0.311 Goal=   None    Shift=    0.000
 Gap=     0.258 Goal=   None    Shift=    0.000
 RMSDP=1.57D-03 MaxDP=2.47D-02 DE=-1.11D-01 OVMax= 1.00D-01

 Cycle   3  Pass 0  IDiag  1:
 E= -236.399784488901     Delta-E=       -0.136236407184 Rises=F Damp=F
 DIIS: error= 2.67D-03 at cycle   3 NSaved=   3.
 NSaved= 3 IEnMin= 3 EnMin= -236.399784488901     IErMin= 3 ErrMin= 2.67D-03
 ErrMax= 2.67D-03  0.00D+00 EMaxC= 1.00D-01 BMatC= 4.98D-03 BMatP= 3.89D-02
 IDIUse=3 WtCom= 9.73D-01 WtEn= 2.67D-02
 Coeff-Com: -0.417D-02 0.202D+00 0.802D+00
 Coeff-En:   0.000D+00 0.000D+00 0.100D+01
 Coeff:     -0.406D-02 0.197D+00 0.807D+00
 Gap=     0.319 Goal=   None    Shift=    0.000
 Gap=     0.239 Goal=   None    Shift=    0.000
 RMSDP=5.46D-04 MaxDP=1.20D-02 DE=-1.36D-01 OVMax= 1.11D-02

 Cycle   4  Pass 0  IDiag  1:
 E= -236.400604976016     Delta-E=       -0.000820487116 Rises=F Damp=F
 DIIS: error= 1.53D-03 at cycle   4 NSaved=   4.
 NSaved= 4 IEnMin= 4 EnMin= -236.400604976016     IErMin= 4 ErrMin= 1.53D-03
 ErrMax= 1.53D-03  0.00D+00 EMaxC= 1.00D-01 BMatC= 1.96D-03 BMatP= 4.98D-03
 IDIUse=3 WtCom= 9.85D-01 WtEn= 1.53D-02
 Coeff-Com: -0.508D-02 0.348D-01 0.397D+00 0.573D+00
 Coeff-En:   0.000D+00 0.000D+00 0.242D+00 0.758D+00
 Coeff:     -0.501D-02 0.342D-01 0.395D+00 0.576D+00
 Gap=     0.314 Goal=   None    Shift=    0.000
 Gap=     0.246 Goal=   None    Shift=    0.000
 RMSDP=2.14D-04 MaxDP=4.29D-03 DE=-8.20D-04 OVMax= 5.19D-03

 Cycle   5  Pass 0  IDiag  1:
 E= -236.401080923314     Delta-E=       -0.000475947297 Rises=F Damp=F
 DIIS: error= 3.37D-04 at cycle   5 NSaved=   5.
 NSaved= 5 IEnMin= 5 EnMin= -236.401080923314     IErMin= 5 ErrMin= 3.37D-04
 ErrMax= 3.37D-04  0.00D+00 EMaxC= 1.00D-01 BMatC= 8.62D-05 BMatP= 1.96D-03
 IDIUse=3 WtCom= 9.97D-01 WtEn= 3.37D-03
 Coeff-Com: -0.127D-02-0.294D-02 0.942D-01 0.230D+00 0.680D+00
 Coeff-En:   0.000D+00 0.000D+00 0.000D+00 0.000D+00 0.100D+01
 Coeff:     -0.126D-02-0.293D-02 0.939D-01 0.229D+00 0.681D+00
 Gap=     0.315 Goal=   None    Shift=    0.000
 Gap=     0.245 Goal=   None    Shift=    0.000
 RMSDP=4.61D-05 MaxDP=8.84D-04 DE=-4.76D-04 OVMax= 9.95D-04

 Cycle   6  Pass 0  IDiag  1:
 E= -236.401103051764     Delta-E=       -0.000022128450 Rises=F Damp=F
 DIIS: error= 7.03D-05 at cycle   6 NSaved=   6.
 NSaved= 6 IEnMin= 6 EnMin= -236.401103051764     IErMin= 6 ErrMin= 7.03D-05
 ErrMax= 7.03D-05  0.00D+00 EMaxC= 1.00D-01 BMatC= 2.57D-06 BMatP= 8.62D-05
 IDIUse=1 WtCom= 1.00D+00 WtEn= 0.00D+00
 Coeff-Com:  0.127D-03-0.223D-02-0.106D-01-0.600D-02 0.776D-01 0.941D+00
 Coeff:      0.127D-03-0.223D-02-0.106D-01-0.600D-02 0.776D-01 0.941D+00
 Gap=     0.316 Goal=   None    Shift=    0.000
 Gap=     0.246 Goal=   None    Shift=    0.000
 RMSDP=1.39D-05 MaxDP=4.43D-04 DE=-2.21D-05 OVMax= 3.84D-04

 Cycle   7  Pass 0  IDiag  1:
 E= -236.401104161809     Delta-E=       -0.000001110046 Rises=F Damp=F
 DIIS: error= 3.17D-05 at cycle   7 NSaved=   7.
 NSaved= 7 IEnMin= 7 EnMin= -236.401104161809     IErMin= 7 ErrMin= 3.17D-05
 ErrMax= 3.17D-05  0.00D+00 EMaxC= 1.00D-01 BMatC= 9.20D-07 BMatP= 2.57D-06
 IDIUse=1 WtCom= 1.00D+00 WtEn= 0.00D+00
 Coeff-Com:  0.232D-03-0.396D-03-0.189D-01-0.388D-01-0.794D-01 0.386D+00
 Coeff-Com:  0.751D+00
 Coeff:      0.232D-03-0.396D-03-0.189D-01-0.388D-01-0.794D-01 0.386D+00
 Coeff:      0.751D+00
 Gap=     0.316 Goal=   None    Shift=    0.000
 Gap=     0.246 Goal=   None    Shift=    0.000
 RMSDP=6.19D-06 MaxDP=1.87D-04 DE=-1.11D-06 OVMax= 1.83D-04

 Initial convergence to 1.0D-05 achieved.  Increase integral accuracy.
 Cycle   8  Pass 1  IDiag  1:
 E= -236.401088182313     Delta-E=        0.000015979496 Rises=F Damp=F
 DIIS: error= 1.06D-05 at cycle   1 NSaved=   1.
 NSaved= 1 IEnMin= 1 EnMin= -236.401088182313     IErMin= 1 ErrMin= 1.06D-05
 ErrMax= 1.06D-05  0.00D+00 EMaxC= 1.00D-01 BMatC= 1.10D-07 BMatP= 1.10D-07
 IDIUse=1 WtCom= 1.00D+00 WtEn= 0.00D+00
 Coeff-Com:  0.100D+01
 Coeff:      0.100D+01
 Gap=     0.316 Goal=   None    Shift=    0.000
 Gap=     0.246 Goal=   None    Shift=    0.000
 RMSDP=6.19D-06 MaxDP=1.87D-04 DE= 1.60D-05 OVMax= 6.96D-05

 Cycle   9  Pass 1  IDiag  1:
 E= -236.401088189173     Delta-E=       -0.000000006860 Rises=F Damp=F
 DIIS: error= 1.16D-05 at cycle   2 NSaved=   2.
 NSaved= 2 IEnMin= 2 EnMin= -236.401088189173     IErMin= 1 ErrMin= 1.06D-05
 ErrMax= 1.16D-05  0.00D+00 EMaxC= 1.00D-01 BMatC= 1.20D-07 BMatP= 1.10D-07
 IDIUse=1 WtCom= 1.00D+00 WtEn= 0.00D+00
 Coeff-Com:  0.512D+00 0.488D+00
 Coeff:      0.512D+00 0.488D+00
 Gap=     0.316 Goal=   None    Shift=    0.000
 Gap=     0.246 Goal=   None    Shift=    0.000
 RMSDP=1.49D-06 MaxDP=3.02D-05 DE=-6.86D-09 OVMax= 3.11D-05

 Cycle  10  Pass 1  IDiag  1:
 E= -236.401088219702     Delta-E=       -0.000000030529 Rises=F Damp=F
 DIIS: error= 1.45D-06 at cycle   3 NSaved=   3.
 NSaved= 3 IEnMin= 3 EnMin= -236.401088219702     IErMin= 3 ErrMin= 1.45D-06
 ErrMax= 1.45D-06  0.00D+00 EMaxC= 1.00D-01 BMatC= 2.70D-09 BMatP= 1.10D-07
 IDIUse=1 WtCom= 1.00D+00 WtEn= 0.00D+00
 Coeff-Com: -0.614D-01 0.295D-01 0.103D+01
 Coeff:     -0.614D-01 0.295D-01 0.103D+01
 Gap=     0.316 Goal=   None    Shift=    0.000
 Gap=     0.246 Goal=   None    Shift=    0.000
 RMSDP=4.69D-07 MaxDP=1.07D-05 DE=-3.05D-08 OVMax= 1.13D-05

 Cycle  11  Pass 1  IDiag  1:
 E= -236.401088220997     Delta-E=       -0.000000001295 Rises=F Damp=F
 DIIS: error= 9.59D-07 at cycle   4 NSaved=   4.
 NSaved= 4 IEnMin= 4 EnMin= -236.401088220997     IErMin= 4 ErrMin= 9.59D-07
 ErrMax= 9.59D-07  0.00D+00 EMaxC= 1.00D-01 BMatC= 8.07D-10 BMatP= 2.70D-09
 IDIUse=1 WtCom= 1.00D+00 WtEn= 0.00D+00
 Coeff-Com: -0.125D+00-0.860D-01 0.406D+00 0.805D+00
 Coeff:     -0.125D+00-0.860D-01 0.406D+00 0.805D+00
 Gap=     0.316 Goal=   None    Shift=    0.000
 Gap=     0.246 Goal=   None    Shift=    0.000
 RMSDP=2.21D-07 MaxDP=6.99D-06 DE=-1.30D-09 OVMax= 6.55D-06

 Cycle  12  Pass 1  IDiag  1:
 E= -236.401088221304     Delta-E=       -0.000000000307 Rises=F Damp=F
 DIIS: error= 4.44D-07 at cycle   5 NSaved=   5.
 NSaved= 5 IEnMin= 5 EnMin= -236.401088221304     IErMin= 5 ErrMin= 4.44D-07
 ErrMax= 4.44D-07  0.00D+00 EMaxC= 1.00D-01 BMatC= 9.77D-11 BMatP= 8.07D-10
 IDIUse=1 WtCom= 1.00D+00 WtEn= 0.00D+00
 Coeff-Com: -0.510D-01-0.422D-01 0.898D-01 0.357D+00 0.646D+00
 Coeff:     -0.510D-01-0.422D-01 0.898D-01 0.357D+00 0.646D+00
 Gap=     0.316 Goal=   None    Shift=    0.000
 Gap=     0.246 Goal=   None    Shift=    0.000
 RMSDP=5.03D-08 MaxDP=1.91D-06 DE=-3.07D-10 OVMax= 1.59D-06

 Cycle  13  Pass 1  IDiag  1:
 E= -236.401088221333     Delta-E=       -0.000000000028 Rises=F Damp=F
 DIIS: error= 6.99D-08 at cycle   6 NSaved=   6.
 NSaved= 6 IEnMin= 6 EnMin= -236.401088221333     IErMin= 6 ErrMin= 6.99D-08
 ErrMax= 6.99D-08  0.00D+00 EMaxC= 1.00D-01 BMatC= 3.98D-12 BMatP= 9.77D-11
 IDIUse=1 WtCom= 1.00D+00 WtEn= 0.00D+00
 Coeff-Com: -0.929D-03-0.260D-02-0.176D-01 0.155D-01 0.175D+00 0.830D+00
 Coeff:     -0.929D-03-0.260D-02-0.176D-01 0.155D-01 0.175D+00 0.830D+00
 Gap=     0.316 Goal=   None    Shift=    0.000
 Gap=     0.246 Goal=   None    Shift=    0.000
 RMSDP=1.44D-08 MaxDP=3.83D-07 DE=-2.83D-11 OVMax= 4.05D-07

 Cycle  14  Pass 1  IDiag  1:
 E= -236.401088221334     Delta-E=       -0.000000000001 Rises=F Damp=F
 DIIS: error= 2.49D-08 at cycle   7 NSaved=   7.
 NSaved= 7 IEnMin= 7 EnMin= -236.401088221334     IErMin= 7 ErrMin= 2.49D-08
 ErrMax= 2.49D-08  0.00D+00 EMaxC= 1.00D-01 BMatC= 3.81D-13 BMatP= 3.98D-12
 IDIUse=1 WtCom= 1.00D+00 WtEn= 0.00D+00
 Coeff-Com:  0.227D-02 0.123D-02-0.107D-01-0.126D-01 0.277D-01 0.292D+00
 Coeff-Com:  0.700D+00
 Coeff:      0.227D-02 0.123D-02-0.107D-01-0.126D-01 0.277D-01 0.292D+00
 Coeff:      0.700D+00
 Gap=     0.316 Goal=   None    Shift=    0.000
 Gap=     0.246 Goal=   None    Shift=    0.000
 RMSDP=4.12D-09 MaxDP=9.37D-08 DE=-1.14D-12 OVMax= 1.10D-07

 SCF Done:  E(UB3LYP) =  -236.401088221     A.U. after   14 cycles
            NFock= 14  Conv=0.41D-08     -V/T= 2.0104
 <Sx>= 0.0000 <Sy>= 0.0000 <Sz>= 0.5000 <S**2>= 0.7527 S= 0.5013
 <L.S>= 0.000000000000E+00
 KE= 2.339566399925D+02 PE=-1.036123481506D+03 EE= 3.204841839289D+02
 Annihilation of the first spin contaminant:
 S**2 before annihilation     0.7527,   after     0.7500
 Leave Link  502 at Sat Nov  7 02:06:06 2015, MaxMem=   805306368 cpu:       166.9
 (Enter /home/hetanjin/apps/g09D01/g09/l601.exe)
 Copying SCF densities to generalized density rwf, IOpCl= 1 IROHF=0.

 **********************************************************************

            Population analysis using the SCF density.

 **********************************************************************

 Orbital symmetries:
 Alpha Orbitals:
       Occupied  (A) (A) (A) (A) (A) (A) (A) (A) (A) (A) (A) (A)
                 (A) (A) (A) (A) (A) (A) (A) (A) (A) (A) (A) (A)
                 (A)
       Virtual   (A) (A) (A) (A) (A) (A) (A) (A) (A) (A) (A) (A)
                 (A) (A) (A) (A) (A) (A) (A) (A) (A) (A) (A) (A)
                 (A) (A) (A) (A) (A) (A) (A) (A) (A) (A) (A) (A)
                 (A) (A) (A) (A) (A) (A) (A) (A) (A) (A) (A) (A)
                 (A) (A) (A) (A) (A) (A) (A) (A) (A) (A) (A) (A)
                 (A) (A) (A) (A) (A) (A) (A) (A) (A) (A) (A) (A)
                 (A) (A) (A) (A) (A) (A) (A) (A) (A) (A) (A) (A)
                 (A) (A) (A) (A) (A) (A) (A)
 Beta  Orbitals:
       Occupied  (A) (A) (A) (A) (A) (A) (A) (A) (A) (A) (A) (A)
                 (A) (A) (A) (A) (A) (A) (A) (A) (A) (A) (A) (A)
       Virtual   (A) (A) (A) (A) (A) (A) (A) (A) (A) (A) (A) (A)
                 (A) (A) (A) (A) (A) (A) (A) (A) (A) (A) (A) (A)
                 (A) (A) (A) (A) (A) (A) (A) (A) (A) (A) (A) (A)
                 (A) (A) (A) (A) (A) (A) (A) (A) (A) (A) (A) (A)
                 (A) (A) (A) (A) (A) (A) (A) (A) (A) (A) (A) (A)
                 (A) (A) (A) (A) (A) (A) (A) (A) (A) (A) (A) (A)
                 (A) (A) (A) (A) (A) (A) (A) (A) (A) (A) (A) (A)
                 (A) (A) (A) (A) (A) (A) (A) (A)
 The electronic state is 2-A.
 Alpha  occ. eigenvalues --  -10.19549 -10.18366 -10.18270 -10.17665 -10.17112
 Alpha  occ. eigenvalues --  -10.16692  -0.80955  -0.74531  -0.70392  -0.64542
 Alpha  occ. eigenvalues --   -0.59096  -0.55148  -0.46190  -0.44819  -0.42536
 Alpha  occ. eigenvalues --   -0.41438  -0.39492  -0.37543  -0.36709  -0.35706
 Alpha  occ. eigenvalues --   -0.34591  -0.31839  -0.31354  -0.30713  -0.22792
 Alpha virt. eigenvalues --    0.08766   0.11815   0.12040   0.13579   0.15176
 Alpha virt. eigenvalues --    0.16032   0.16315   0.17276   0.17608   0.18505
 Alpha virt. eigenvalues --    0.19206   0.21957   0.22569   0.23228   0.25160
 Alpha virt. eigenvalues --    0.25243   0.28194   0.28971   0.49341   0.50799
 Alpha virt. eigenvalues --    0.51193   0.52625   0.53089   0.58023   0.58955
 Alpha virt. eigenvalues --    0.63018   0.63811   0.64543   0.67590   0.68949
 Alpha virt. eigenvalues --    0.73514   0.75445   0.80901   0.83893   0.84933
 Alpha virt. eigenvalues --    0.85787   0.88694   0.89650   0.90158   0.91373
 Alpha virt. eigenvalues --    0.92372   0.93147   0.93804   0.96283   0.96751
 Alpha virt. eigenvalues --    0.97318   0.99207   1.00837   1.02172   1.02776
 Alpha virt. eigenvalues --    1.19016   1.30742   1.39829   1.42635   1.50660
 Alpha virt. eigenvalues --    1.57227   1.58355   1.67608   1.73565   1.74290
 Alpha virt. eigenvalues --    1.81842   1.84077   1.88250   1.90940   1.95448
 Alpha virt. eigenvalues --    1.97314   1.98820   1.99656   2.01965   2.06740
 Alpha virt. eigenvalues --    2.11392   2.16416   2.23445   2.27626   2.29000
 Alpha virt. eigenvalues --    2.30797   2.31981   2.35212   2.42133   2.51100
 Alpha virt. eigenvalues --    2.52396   2.59178   2.68258   2.77040   2.79242
 Alpha virt. eigenvalues --    4.08976   4.16816   4.25612   4.38513   4.41680
 Alpha virt. eigenvalues --    4.59600
  Beta  occ. eigenvalues --  -10.18355 -10.18297 -10.18104 -10.17665 -10.17113
  Beta  occ. eigenvalues --  -10.16683  -0.80733  -0.73802  -0.69769  -0.63841
  Beta  occ. eigenvalues --   -0.57925  -0.54904  -0.45964  -0.44450  -0.42005
  Beta  occ. eigenvalues --   -0.41163  -0.38982  -0.37367  -0.36387  -0.35192
  Beta  occ. eigenvalues --   -0.34287  -0.31741  -0.31240  -0.30472
  Beta virt. eigenvalues --   -0.05907   0.08950   0.12092   0.12193   0.13722
  Beta virt. eigenvalues --    0.15494   0.16219   0.16555   0.17569   0.17729
  Beta virt. eigenvalues --    0.18775   0.19678   0.22044   0.22872   0.23601
  Beta virt. eigenvalues --    0.25273   0.25499   0.28991   0.29180   0.49763
  Beta virt. eigenvalues --    0.51272   0.51742   0.53168   0.53383   0.59263
  Beta virt. eigenvalues --    0.60888   0.63628   0.64798   0.65576   0.68226
  Beta virt. eigenvalues --    0.69556   0.73994   0.75928   0.81090   0.84169
  Beta virt. eigenvalues --    0.85322   0.86057   0.89002   0.90223   0.90254
  Beta virt. eigenvalues --    0.91603   0.92651   0.93578   0.94241   0.96601
  Beta virt. eigenvalues --    0.97286   0.97560   0.99485   1.01295   1.02518
  Beta virt. eigenvalues --    1.03125   1.20403   1.30826   1.40484   1.42969
  Beta virt. eigenvalues --    1.51076   1.58228   1.58615   1.68405   1.74193
  Beta virt. eigenvalues --    1.74440   1.82785   1.87298   1.89928   1.91664
  Beta virt. eigenvalues --    1.96045   1.98075   1.99562   2.00953   2.02183
  Beta virt. eigenvalues --    2.07973   2.11594   2.18046   2.25288   2.27960
  Beta virt. eigenvalues --    2.29636   2.31828   2.32688   2.35258   2.42698
  Beta virt. eigenvalues --    2.51259   2.52513   2.59963   2.68612   2.77334
  Beta virt. eigenvalues --    2.79477   4.10560   4.18156   4.25770   4.39111
  Beta virt. eigenvalues --    4.41732   4.59674
          Condensed to atoms (all electrons):
               1          2          3          4          5          6
     1  C    5.073031   0.376801   0.377672   0.371405   0.368974  -0.039461
     2  H    0.376801   0.580198  -0.032872  -0.031354  -0.035994   0.005337
     3  H    0.377672  -0.032872   0.571505  -0.031279  -0.032654  -0.004674
     4  H    0.371405  -0.031354  -0.031279   0.578718  -0.027107  -0.002226
     5  C    0.368974  -0.035994  -0.032654  -0.027107   4.997929   0.369177
     6  H   -0.039461   0.005337  -0.004674  -0.002226   0.369177   0.617291
     7  H   -0.039096  -0.003816   0.005140  -0.003804   0.371413  -0.038928
     8  C   -0.037932  -0.004697  -0.005191   0.003918   0.386966  -0.037850
     9  H   -0.005025   0.005733  -0.000199  -0.000016  -0.047951   0.006603
    10  C    0.003986   0.000059   0.000034  -0.000122  -0.041636  -0.004481
    11  H    0.000074   0.000000   0.000003  -0.000008  -0.004730  -0.000364
    12  H   -0.000040   0.000007   0.000002   0.000003  -0.004379   0.004767
    13  C   -0.000121   0.000000   0.000001   0.000001   0.003887  -0.000021
    14  H    0.000002   0.000000   0.000000   0.000000  -0.000160   0.000004
    15  H   -0.000001  -0.000001   0.000000   0.000000   0.000055   0.000008
    16  C   -0.003936  -0.000562   0.002254   0.000114  -0.050704  -0.007990
    17  H    0.002142   0.000398   0.003194  -0.000091  -0.005317  -0.000091
    18  H   -0.000305   0.000075   0.000267  -0.000023  -0.005463   0.005644
    19  H    0.000076  -0.000027  -0.000119   0.000001   0.004912  -0.000035
               7          8          9         10         11         12
     1  C   -0.039096  -0.037932  -0.005025   0.003986   0.000074  -0.000040
     2  H   -0.003816  -0.004697   0.005733   0.000059   0.000000   0.000007
     3  H    0.005140  -0.005191  -0.000199   0.000034   0.000003   0.000002
     4  H   -0.003804   0.003918  -0.000016  -0.000122  -0.000008   0.000003
     5  C    0.371413   0.386966  -0.047951  -0.041636  -0.004730  -0.004379
     6  H   -0.038928  -0.037850   0.006603  -0.004481  -0.000364   0.004767
     7  H    0.618811  -0.038763  -0.003524  -0.005595   0.007282  -0.000343
     8  C   -0.038763   4.866253   0.374023   0.383245  -0.039159  -0.037670
     9  H   -0.003524   0.374023   0.650267  -0.048491  -0.003444   0.006491
    10  C   -0.005595   0.383245  -0.048491   5.037069   0.361376   0.365264
    11  H    0.007282  -0.039159  -0.003444   0.361376   0.609438  -0.037653
    12  H   -0.000343  -0.037670   0.006491   0.365264  -0.037653   0.606886
    13  C    0.000063  -0.038321  -0.004913   0.366169  -0.038130  -0.039580
    14  H   -0.000006   0.004088  -0.000013  -0.035829  -0.001221  -0.003478
    15  H    0.000001  -0.005980   0.005747  -0.045654  -0.001474   0.005372
    16  C    0.005775   0.381284  -0.048972  -0.050710   0.005734  -0.007598
    17  H    0.000003  -0.030146  -0.003451   0.005026  -0.000168  -0.000054
    18  H   -0.000016  -0.035279   0.005973  -0.005736  -0.000025   0.005575
    19  H   -0.000171  -0.028516  -0.003229  -0.005593   0.000082  -0.000142
              13         14         15         16         17         18
     1  C   -0.000121   0.000002  -0.000001  -0.003936   0.002142  -0.000305
     2  H    0.000000   0.000000  -0.000001  -0.000562   0.000398   0.000075
     3  H    0.000001   0.000000   0.000000   0.002254   0.003194   0.000267
     4  H    0.000001   0.000000   0.000000   0.000114  -0.000091  -0.000023
     5  C    0.003887  -0.000160   0.000055  -0.050704  -0.005317  -0.005463
     6  H   -0.000021   0.000004   0.000008  -0.007990  -0.000091   0.005644
     7  H    0.000063  -0.000006   0.000001   0.005775   0.000003  -0.000016
     8  C   -0.038321   0.004088  -0.005980   0.381284  -0.030146  -0.035279
     9  H   -0.004913  -0.000013   0.005747  -0.048972  -0.003451   0.005973
    10  C    0.366169  -0.035829  -0.045654  -0.050710   0.005026  -0.005736
    11  H   -0.038130  -0.001221  -0.001474   0.005734  -0.000168  -0.000025
    12  H   -0.039580  -0.003478   0.005372  -0.007598  -0.000054   0.005575
    13  C    5.320361   0.353215   0.360002  -0.002769   0.000032  -0.000162
    14  H    0.353215   0.596272  -0.045476   0.000130   0.000002  -0.000017
    15  H    0.360002  -0.045476   0.595628  -0.000526  -0.000029   0.000072
    16  C   -0.002769   0.000130  -0.000526   5.114845   0.371257   0.370840
    17  H    0.000032   0.000002  -0.000029   0.371257   0.576971  -0.032122
    18  H   -0.000162  -0.000017   0.000072   0.370840  -0.032122   0.584729
    19  H    0.008141  -0.000150   0.000178   0.370392  -0.030639  -0.030375
              19
     1  C    0.000076
     2  H   -0.000027
     3  H   -0.000119
     4  H    0.000001
     5  C    0.004912
     6  H   -0.000035
     7  H   -0.000171
     8  C   -0.028516
     9  H   -0.003229
    10  C   -0.005593
    11  H    0.000082
    12  H   -0.000142
    13  C    0.008141
    14  H   -0.000150
    15  H    0.000178
    16  C    0.370392
    17  H   -0.030639
    18  H   -0.030375
    19  H    0.564239
          Atomic-Atomic Spin Densities.
               1          2          3          4          5          6
     1  C   -0.000443   0.000031  -0.000016   0.000140   0.000087   0.000015
     2  H    0.000031   0.000114  -0.000042   0.000017  -0.000113   0.000001
     3  H   -0.000016  -0.000042   0.000214  -0.000026   0.000056  -0.000003
     4  H    0.000140   0.000017  -0.000026  -0.000076  -0.000095   0.000008
     5  C    0.000087  -0.000113   0.000056  -0.000095  -0.001625   0.000172
     6  H    0.000015   0.000001  -0.000003   0.000008   0.000172  -0.000023
     7  H    0.000120   0.000025  -0.000014   0.000009  -0.000355   0.000076
     8  C   -0.000278   0.000001   0.000038   0.000000   0.000089  -0.000244
     9  H   -0.000056  -0.000024   0.000009   0.000000   0.000356  -0.000015
    10  C   -0.000002   0.000006  -0.000003   0.000003   0.000419   0.000010
    11  H    0.000045   0.000007  -0.000002   0.000001   0.000563   0.000020
    12  H   -0.000017  -0.000001   0.000001   0.000000  -0.000344  -0.000039
    13  C   -0.000005  -0.000001   0.000000   0.000000   0.000073  -0.000003
    14  H    0.000000   0.000000   0.000000   0.000000  -0.000001   0.000000
    15  H   -0.000001   0.000000   0.000000   0.000000  -0.000046   0.000000
    16  C    0.000110   0.000020  -0.000058   0.000003   0.000945   0.000052
    17  H    0.000009   0.000010  -0.000052   0.000001   0.000024   0.000006
    18  H    0.000003   0.000000  -0.000003   0.000000   0.000081  -0.000003
    19  H    0.000005   0.000002  -0.000004   0.000000  -0.000029   0.000005
               7          8          9         10         11         12
     1  C    0.000120  -0.000278  -0.000056  -0.000002   0.000045  -0.000017
     2  H    0.000025   0.000001  -0.000024   0.000006   0.000007  -0.000001
     3  H   -0.000014   0.000038   0.000009  -0.000003  -0.000002   0.000001
     4  H    0.000009   0.000000   0.000000   0.000003   0.000001   0.000000
     5  C   -0.000355   0.000089   0.000356   0.000419   0.000563  -0.000344
     6  H    0.000076  -0.000244  -0.000015   0.000010   0.000020  -0.000039
     7  H   -0.000214  -0.000437  -0.000037   0.000330   0.000773  -0.000090
     8  C   -0.000437   0.017211   0.000463   0.001909  -0.009094   0.004863
     9  H   -0.000037   0.000463  -0.000693   0.000249  -0.000694   0.000072
    10  C    0.000330   0.001909   0.000249  -0.037513   0.016216   0.003105
    11  H    0.000773  -0.009094  -0.000694   0.016216   0.077983  -0.007860
    12  H   -0.000090   0.004863   0.000072   0.003105  -0.007860   0.013555
    13  C   -0.000061  -0.005601  -0.000085  -0.035698  -0.024329  -0.005143
    14  H   -0.000002   0.000204   0.000028   0.002243  -0.002704   0.001253
    15  H   -0.000007   0.001075   0.000128   0.002384  -0.002418   0.000211
    16  C    0.000083  -0.005168  -0.000242   0.000609   0.000682  -0.000838
    17  H    0.000004  -0.000082  -0.000037  -0.000064   0.000012  -0.000020
    18  H    0.000002  -0.000321  -0.000018   0.000007   0.000013  -0.000066
    19  H    0.000004  -0.000193  -0.000019  -0.000808   0.000109  -0.000164
              13         14         15         16         17         18
     1  C   -0.000005   0.000000  -0.000001   0.000110   0.000009   0.000003
     2  H   -0.000001   0.000000   0.000000   0.000020   0.000010   0.000000
     3  H    0.000000   0.000000   0.000000  -0.000058  -0.000052  -0.000003
     4  H    0.000000   0.000000   0.000000   0.000003   0.000001   0.000000
     5  C    0.000073  -0.000001  -0.000046   0.000945   0.000024   0.000081
     6  H   -0.000003   0.000000   0.000000   0.000052   0.000006  -0.000003
     7  H   -0.000061  -0.000002  -0.000007   0.000083   0.000004   0.000002
     8  C   -0.005601   0.000204   0.001075  -0.005168  -0.000082  -0.000321
     9  H   -0.000085   0.000028   0.000128  -0.000242  -0.000037  -0.000018
    10  C   -0.035698   0.002243   0.002384   0.000609  -0.000064   0.000007
    11  H   -0.024329  -0.002704  -0.002418   0.000682   0.000012   0.000013
    12  H   -0.005143   0.001253   0.000211  -0.000838  -0.000020  -0.000066
    13  C    1.131688  -0.012176  -0.013040  -0.000625   0.000079   0.000123
    14  H   -0.012176  -0.026266   0.006268  -0.000027  -0.000001  -0.000002
    15  H   -0.013040   0.006268  -0.023589   0.000044  -0.000005  -0.000002
    16  C   -0.000625  -0.000027   0.000044   0.012536  -0.000234  -0.000077
    17  H    0.000079  -0.000001  -0.000005  -0.000234  -0.000072   0.000029
    18  H    0.000123  -0.000002  -0.000002  -0.000077   0.000029  -0.000096
    19  H    0.003619  -0.000032  -0.000245  -0.000410   0.000066   0.000312
              19
     1  C    0.000005
     2  H    0.000002
     3  H   -0.000004
     4  H    0.000000
     5  C   -0.000029
     6  H    0.000005
     7  H    0.000004
     8  C   -0.000193
     9  H   -0.000019
    10  C   -0.000808
    11  H    0.000109
    12  H   -0.000164
    13  C    0.003619
    14  H   -0.000032
    15  H   -0.000245
    16  C   -0.000410
    17  H    0.000066
    18  H    0.000312
    19  H   -0.003029
 Mulliken charges and spin densities:
               1          2
     1  C   -0.448245  -0.000253
     2  H    0.140717   0.000054
     3  H    0.146913   0.000093
     4  H    0.141870  -0.000014
     5  C   -0.247217   0.000256
     6  H    0.127289   0.000034
     7  H    0.125573   0.000210
     8  C   -0.060274   0.004433
     9  H    0.114391  -0.000613
    10  C   -0.278381  -0.046601
    11  H    0.142385   0.049323
    12  H    0.136568   0.008478
    13  C   -0.287855   1.038814
    14  H    0.132637  -0.031216
    15  H    0.132078  -0.029242
    16  C   -0.448857   0.007404
    17  H    0.143084  -0.000329
    18  H    0.136349  -0.000018
    19  H    0.150973  -0.000813
 Sum of Mulliken charges =   0.00000   1.00000
 Mulliken charges and spin densities with hydrogens summed into heavy atoms:
               1          2
     1  C   -0.018745  -0.000119
     5  C    0.005645   0.000500
     8  C    0.054117   0.003820
    10  C    0.000573   0.011199
    13  C   -0.023139   0.978356
    16  C   -0.018451   0.006244
 Electronic spatial extent (au):  <R**2>=            824.9981
 Charge=              0.0000 electrons
 Dipole moment (field-independent basis, Debye):
    X=             -0.2672    Y=             -0.6281    Z=             -0.1038  Tot=              0.6904
 Quadrupole moment (field-independent basis, Debye-Ang):
   XX=            -42.1531   YY=            -40.9062   ZZ=            -40.2847
   XY=             -1.6495   XZ=             -0.3432   YZ=              0.1224
 Traceless Quadrupole moment (field-independent basis, Debye-Ang):
   XX=             -1.0384   YY=              0.2085   ZZ=              0.8299
   XY=             -1.6495   XZ=             -0.3432   YZ=              0.1224
 Octapole moment (field-independent basis, Debye-Ang**2):
  XXX=             -4.1345  YYY=             -1.8130  ZZZ=             -0.1316  XYY=             -1.1550
  XXY=             -5.1902  XXZ=              0.0453  XZZ=              0.1665  YZZ=             -0.1456
  YYZ=             -0.4909  XYZ=              0.0738
 Hexadecapole moment (field-independent basis, Debye-Ang**3):
 XXXX=           -817.1023 YYYY=           -239.6153 ZZZZ=           -102.7148 XXXY=            -14.9158
 XXXZ=             -3.2093 YYYX=             -2.4118 YYYZ=             -0.4086 ZZZX=             -0.2007
 ZZZY=              1.1701 XXYY=           -172.0216 XXZZ=           -151.3464 YYZZ=            -59.2732
 XXYZ=             -0.6200 YYXZ=             -0.1088 ZZXY=             -0.5270
 N-N= 2.452815693629D+02 E-N=-1.036123486603D+03  KE= 2.339566399925D+02
                          Isotropic Fermi Contact Couplings
        Atom                 a.u.       MegaHertz       Gauss      10(-4) cm-1
     1  C(13)             -0.00026      -0.29585      -0.10557      -0.09869
     2  H(1)               0.00001       0.04072       0.01453       0.01358
     3  H(1)               0.00008       0.36432       0.13000       0.12152
     4  H(1)               0.00000       0.00586       0.00209       0.00195
     5  C(13)             -0.00042      -0.46718      -0.16670      -0.15584
     6  H(1)               0.00005       0.20682       0.07380       0.06899
     7  H(1)               0.00007       0.31070       0.11086       0.10364
     8  C(13)              0.00466       5.23894       1.86938       1.74752
     9  H(1)              -0.00023      -1.03742      -0.37018      -0.34605
    10  C(13)             -0.01294     -14.54990      -5.19176      -4.85332
    11  H(1)               0.02683     119.94422      42.79908      40.00908
    12  H(1)               0.00557      24.90816       8.88785       8.30847
    13  C(13)              0.30825     346.53729     123.65312     115.59240
    14  H(1)              -0.00464     -20.72962      -7.39684      -6.91466
    15  H(1)              -0.00352     -15.72253      -5.61019      -5.24447
    16  C(13)             -0.00007      -0.07733      -0.02759      -0.02579
    17  H(1)              -0.00010      -0.46299      -0.16521      -0.15444
    18  H(1)               0.00002       0.10899       0.03889       0.03635
    19  H(1)               0.00061       2.74153       0.97825       0.91448
 --------------------------------------------------------
       Center         ----  Spin Dipole Couplings  ----
                      3XX-RR        3YY-RR        3ZZ-RR
 --------------------------------------------------------
     1   Atom        0.001786     -0.000696     -0.001090
     2   Atom        0.001759     -0.000904     -0.000855
     3   Atom        0.001748     -0.000816     -0.000932
     4   Atom        0.001297     -0.000613     -0.000684
     5   Atom        0.003451     -0.001109     -0.002342
     6   Atom        0.002729     -0.001559     -0.001170
     7   Atom        0.003866     -0.001152     -0.002714
     8   Atom        0.014923     -0.007173     -0.007750
     9   Atom        0.007830     -0.004843     -0.002988
    10   Atom        0.011381      0.011330     -0.022712
    11   Atom        0.000900      0.008337     -0.009236
    12   Atom       -0.001135     -0.006619      0.007754
    13   Atom       -0.453854      0.813930     -0.360076
    14   Atom        0.024271      0.014903     -0.039175
    15   Atom       -0.058975     -0.012537      0.071512
    16   Atom        0.009622     -0.001530     -0.008092
    17   Atom        0.003257     -0.000683     -0.002574
    18   Atom        0.002844     -0.001776     -0.001068
    19   Atom        0.006070      0.002753     -0.008823
 --------------------------------------------------------
                        XY            XZ            YZ
 --------------------------------------------------------
     1   Atom        0.000206     -0.000110      0.000081
     2   Atom        0.000117      0.000689      0.000031
     3   Atom       -0.000348     -0.000066      0.000033
     4   Atom        0.000245     -0.000070      0.000008
     5   Atom       -0.000291     -0.000794      0.000861
     6   Atom        0.000576     -0.001997     -0.000203
     7   Atom        0.001907     -0.000314     -0.000082
     8   Atom       -0.002162      0.003512     -0.001991
     9   Atom        0.000130      0.005892      0.000001
    10   Atom        0.034214     -0.005553     -0.000552
    11   Atom        0.008422     -0.004527     -0.000166
    12   Atom        0.005877     -0.013590     -0.006752
    13   Atom        0.185391      0.058240      0.392394
    14   Atom       -0.042032      0.038539     -0.006639
    15   Atom        0.005971      0.003119      0.005973
    16   Atom        0.000598     -0.004076     -0.001510
    17   Atom       -0.002765      0.000248     -0.000292
    18   Atom       -0.003227     -0.003602      0.001981
    19   Atom       -0.010936     -0.001034     -0.000337
 --------------------------------------------------------


 ---------------------------------------------------------------------------------
              Anisotropic Spin Dipole Couplings in Principal Axis System
 ---------------------------------------------------------------------------------

       Atom             a.u.   MegaHertz   Gauss  10(-4) cm-1        Axes

              Baa    -0.0011    -0.149    -0.053    -0.050  0.0524 -0.2145  0.9753
     1 C(13)  Bbb    -0.0007    -0.093    -0.033    -0.031 -0.0713  0.9734  0.2179
              Bcc     0.0018     0.242     0.087     0.081  0.9961  0.0810 -0.0357
 
              Baa    -0.0010    -0.547    -0.195    -0.183 -0.2397 -0.0138  0.9708
     2 H(1)   Bbb    -0.0009    -0.485    -0.173    -0.162 -0.0448  0.9990  0.0032
              Bcc     0.0019     1.032     0.368     0.344  0.9698  0.0427  0.2401
 
              Baa    -0.0009    -0.502    -0.179    -0.167 -0.0141 -0.2903  0.9568
     3 H(1)   Bbb    -0.0009    -0.456    -0.163    -0.152  0.1340  0.9477  0.2895
              Bcc     0.0018     0.958     0.342     0.320  0.9909 -0.1323 -0.0256
 
              Baa    -0.0007    -0.369    -0.132    -0.123  0.0734 -0.3244  0.9430
     4 H(1)   Bbb    -0.0006    -0.340    -0.121    -0.114 -0.1068  0.9376  0.3309
              Bcc     0.0013     0.710     0.253     0.237  0.9916  0.1251 -0.0342
 
              Baa    -0.0028    -0.381    -0.136    -0.127  0.0933 -0.4313  0.8974
     5 C(13)  Bbb    -0.0008    -0.101    -0.036    -0.034  0.1408  0.8979  0.4170
              Bcc     0.0036     0.482     0.172     0.161  0.9856 -0.0874 -0.1446
 
              Baa    -0.0020    -1.075    -0.384    -0.359  0.3960 -0.0938  0.9135
     6 H(1)   Bbb    -0.0016    -0.868    -0.310    -0.290 -0.0702  0.9888  0.1320
              Bcc     0.0036     1.943     0.693     0.648  0.9156  0.1164 -0.3849
 
              Baa    -0.0027    -1.456    -0.520    -0.486  0.0500 -0.0084  0.9987
     7 H(1)   Bbb    -0.0018    -0.957    -0.342    -0.319 -0.3180  0.9478  0.0239
              Bcc     0.0045     2.413     0.861     0.805  0.9468  0.3188 -0.0447
 
              Baa    -0.0095    -1.281    -0.457    -0.427 -0.0597  0.6089  0.7910
     8 C(13)  Bbb    -0.0062    -0.828    -0.295    -0.276  0.1791  0.7861 -0.5916
              Bcc     0.0157     2.109     0.752     0.703  0.9820 -0.1063  0.1560
 
              Baa    -0.0056    -2.977    -1.062    -0.993 -0.4018  0.0693  0.9131
     9 H(1)   Bbb    -0.0048    -2.582    -0.921    -0.861  0.0207  0.9976 -0.0666
              Bcc     0.0104     5.560     1.984     1.855  0.9155  0.0078  0.4023
 
              Baa    -0.0264    -3.549    -1.266    -1.184  0.5256 -0.4656  0.7121
    10 C(13)  Bbb    -0.0194    -2.602    -0.929    -0.868 -0.4713  0.5375  0.6993
              Bcc     0.0458     6.152     2.195     2.052  0.7083  0.7031 -0.0630
 
              Baa    -0.0115    -6.131    -2.188    -2.045  0.4438 -0.1811  0.8776
    11 H(1)   Bbb    -0.0026    -1.406    -0.502    -0.469  0.6987 -0.5434 -0.4654
              Bcc     0.0141     7.537     2.689     2.514  0.5612  0.8197 -0.1146
 
              Baa    -0.0113    -6.036    -2.154    -2.013  0.8125 -0.3752  0.4462
    12 H(1)   Bbb    -0.0092    -4.922    -1.756    -1.642  0.1476  0.8728  0.4652
              Bcc     0.0205    10.958     3.910     3.655 -0.5640 -0.3121  0.7645
 
              Baa    -0.4819   -64.662   -23.073   -21.569  0.8147  0.0582 -0.5770
    13 C(13)  Bbb    -0.4779   -64.123   -22.881   -21.389  0.5637 -0.3131  0.7644
              Bcc     0.9597   128.785    45.954    42.958  0.1362  0.9479  0.2878
 
              Baa    -0.0598   -31.911   -11.387   -10.644 -0.4890 -0.1997  0.8491
    14 H(1)   Bbb    -0.0124    -6.594    -2.353    -2.200  0.4396  0.7844  0.4376
              Bcc     0.0722    38.505    13.740    12.844  0.7534 -0.5873  0.2958
 
              Baa    -0.0598   -31.892   -11.380   -10.638  0.9922 -0.1232 -0.0180
    15 H(1)   Bbb    -0.0123    -6.540    -2.334    -2.181  0.1215  0.9897 -0.0751
              Bcc     0.0720    38.432    13.713    12.819  0.0270  0.0723  0.9970
 
              Baa    -0.0092    -1.238    -0.442    -0.413  0.2029  0.1734  0.9637
    16 C(13)  Bbb    -0.0014    -0.183    -0.065    -0.061 -0.1104  0.9820 -0.1535
              Bcc     0.0106     1.420     0.507     0.474  0.9730  0.0753 -0.2184
 
              Baa    -0.0026    -1.404    -0.501    -0.468  0.0812  0.2592  0.9624
    17 H(1)   Bbb    -0.0021    -1.103    -0.394    -0.368  0.4539  0.8500 -0.2673
              Bcc     0.0047     2.507     0.895     0.836  0.8873 -0.4585  0.0486
 
              Baa    -0.0035    -1.857    -0.662    -0.619  0.2564  0.8989 -0.3553
    18 H(1)   Bbb    -0.0032    -1.708    -0.610    -0.570  0.5663  0.1582  0.8089
              Bcc     0.0067     3.565     1.272     1.189  0.7833 -0.4086 -0.4685
 
              Baa    -0.0092    -4.897    -1.747    -1.633  0.2413  0.2478  0.9383
    19 H(1)   Bbb    -0.0063    -3.366    -1.201    -1.123  0.6051  0.7175 -0.3451
              Bcc     0.0155     8.262     2.948     2.756  0.7587 -0.6510 -0.0232
 

 ---------------------------------------------------------------------------------

 No NMR shielding tensors so no spin-rotation constants.
 Leave Link  601 at Sat Nov  7 02:06:06 2015, MaxMem=   805306368 cpu:         0.9
 (Enter /home/hetanjin/apps/g09D01/g09/l701.exe)
 Compute integral first derivatives.
 ... and contract with generalized density number  0.
 Leave Link  701 at Sat Nov  7 02:06:06 2015, MaxMem=   805306368 cpu:         0.6
 (Enter /home/hetanjin/apps/g09D01/g09/l702.exe)
 L702 exits ... SP integral derivatives will be done elsewhere.
 Leave Link  702 at Sat Nov  7 02:06:06 2015, MaxMem=   805306368 cpu:         0.1
 (Enter /home/hetanjin/apps/g09D01/g09/l703.exe)
 Compute integral first derivatives, UseDBF=F ICtDFT=           0.
 Integral derivatives from FoFJK, PRISM(SPDF).
 Calling FoFJK, ICntrl=      2127 FMM=F ISym2X=0 I1Cent= 0 IOpClX= 1 NMat=1 NMatS=1 NMatT=0.
 FoFJK:  IHMeth= 1 ICntrl=    2127 DoSepK=F KAlg= 0 I1Cent=   0 FoldK=F
 IRaf=         0 NMat=   1 IRICut=       1 DoRegI=T DoRafI=F ISym2E= 0.
 FoFCou: FMM=F IPFlag=           0 FMFlag=      100000 FMFlg1=         800
         NFxFlg=           0 DoJE=F BraDBF=F KetDBF=F FulRan=T
         wScrn=  0.000000 ICntrl=    2127 IOpCl=  1 I1Cent=           0 NGrid=           0
         NMat0=    1 NMatS0=      1 NMatT0=    0 NMatD0=    1 NMtDS0=    0 NMtDT0=    0
 Symmetry not used in FoFCou.
 Leave Link  703 at Sat Nov  7 02:06:15 2015, MaxMem=   805306368 cpu:        32.7
 (Enter /home/hetanjin/apps/g09D01/g09/l716.exe)
 Dipole        =-1.05113605D-01-2.47107490D-01-4.08268729D-02
 ***** Axes restored to original set *****
 -------------------------------------------------------------------
 Center     Atomic                   Forces (Hartrees/Bohr)
 Number     Number              X              Y              Z
 -------------------------------------------------------------------
      1        6           0.000011621   -0.000035612   -0.000057526
      2        1           0.000003258    0.000003286    0.000016073
      3        1           0.000089949   -0.000053558    0.000010159
      4        1           0.000048561   -0.000011957    0.000006519
      5        6          -0.000023196   -0.000169495   -0.000072668
      6        1           0.000034009    0.000012070   -0.000039454
      7        1          -0.000201922   -0.000258611    0.000003845
      8        6          -0.001228816   -0.000001669   -0.000432278
      9        1           0.000120466   -0.000093467    0.000026401
     10        6           0.006666516    0.021446633    0.002680043
     11        1           0.002568805   -0.003086172   -0.001486774
     12        1          -0.000478029   -0.001249545    0.000528357
     13        6          -0.016322609   -0.042556332   -0.008084880
     14        1           0.005591947    0.012422272    0.006703580
     15        1           0.001462119    0.014906702   -0.000033837
     16        6           0.000468037    0.000024300    0.000197279
     17        1          -0.000282293   -0.000256321    0.000021284
     18        1           0.000110299   -0.000008088   -0.000118431
     19        1           0.001361277   -0.001034437    0.000132306
 -------------------------------------------------------------------
 Cartesian Forces:  Max     0.042556332 RMS     0.007416134
 Leave Link  716 at Sat Nov  7 02:06:16 2015, MaxMem=   805306368 cpu:         0.1
 (Enter /home/hetanjin/apps/g09D01/g09/l103.exe)

 GradGradGradGradGradGradGradGradGradGradGradGradGradGradGradGradGradGrad
 Berny optimization.
 FormGI is forming the generalized inverse of G from B-inverse, IUseBI=4.
 Internal  Forces:  Max     0.014212962 RMS     0.003399277
 Search for a local minimum.
 Step number   1 out of a maximum of  103
 All quantities printed in internal units (Hartrees-Bohrs-Radians)
 RMS Force = .33993D-02 SwitMx=.10000D-02 MixMth= 1
 Mixed Optimization -- RFO/linear search
 Second derivative matrix not updated -- first step.
 ITU=  0
     Eigenvalues ---    0.00230   0.00230   0.00279   0.00326   0.00326
     Eigenvalues ---    0.03219   0.03352   0.03666   0.03683   0.04645
     Eigenvalues ---    0.04711   0.04866   0.05254   0.05346   0.05357
     Eigenvalues ---    0.05439   0.05496   0.08726   0.09661   0.12495
     Eigenvalues ---    0.13073   0.16000   0.16000   0.16000   0.16000
     Eigenvalues ---    0.16000   0.16000   0.16000   0.16000   0.16722
     Eigenvalues ---    0.17090   0.21941   0.21969   0.28249   0.28249
     Eigenvalues ---    0.28802   0.29125   0.29125   0.33394   0.33637
     Eigenvalues ---    0.33637   0.33788   0.33788   0.33845   0.33973
     Eigenvalues ---    0.33973   0.34116   0.34116   0.34193   0.34238
     Eigenvalues ---    0.34238
 RFO step:  Lambda=-1.40921802D-02 EMin= 2.30000000D-03
 Linear search not attempted -- first point.
 Iteration  1 RMS(Cart)=  0.05369909 RMS(Int)=  0.00892761
 Iteration  2 RMS(Cart)=  0.00729554 RMS(Int)=  0.00569184
 Iteration  3 RMS(Cart)=  0.00010778 RMS(Int)=  0.00569124
 Iteration  4 RMS(Cart)=  0.00000220 RMS(Int)=  0.00569124
 Iteration  5 RMS(Cart)=  0.00000007 RMS(Int)=  0.00569124
 ITry= 1 IFail=0 DXMaxC= 2.69D-01 DCOld= 1.00D+10 DXMaxT= 3.00D-01 DXLimC= 3.00D+00 Rises=F
 Variable       Old X    -DE/DX   Delta X   Delta X   Delta X     New X
                                 (Linear)    (Quad)   (Total)
    R1        2.07376  -0.00002   0.00000  -0.00004  -0.00004   2.07372
    R2        2.07005  -0.00006   0.00000  -0.00018  -0.00018   2.06987
    R3        2.07134  -0.00003   0.00000  -0.00008  -0.00008   2.07126
    R4        2.89742  -0.00015   0.00000  -0.00050  -0.00050   2.89692
    R5        2.07947  -0.00004   0.00000  -0.00012  -0.00012   2.07936
    R6        2.07690   0.00023   0.00000   0.00066   0.00066   2.07755
    R7        2.91596   0.00023   0.00000   0.00078   0.00078   2.91674
    R8        2.08366  -0.00002   0.00000  -0.00006  -0.00006   2.08359
    R9        2.91596  -0.00121   0.00000  -0.00409  -0.00409   2.91187
   R10        2.90418  -0.00117   0.00000  -0.00386  -0.00386   2.90032
   R11        2.07690   0.00308   0.00000   0.00876   0.00876   2.08565
   R12        2.07947   0.00044   0.00000   0.00125   0.00125   2.08072
   R13        2.89742  -0.01249   0.00000  -0.04090  -0.04090   2.85652
   R14        2.07134  -0.00061   0.00000  -0.00171  -0.00171   2.06963
   R15        2.07376  -0.00050   0.00000  -0.00141  -0.00141   2.07235
   R16        2.06931   0.00010   0.00000   0.00027   0.00027   2.06957
   R17        2.07593  -0.00012   0.00000  -0.00033  -0.00033   2.07559
   R18        2.06930   0.00055   0.00000   0.00155   0.00155   2.07085
    A1        1.87842   0.00004   0.00000   0.00016   0.00016   1.87857
    A2        1.87726   0.00002   0.00000   0.00019   0.00019   1.87745
    A3        1.93932   0.00003   0.00000   0.00016   0.00016   1.93949
    A4        1.87288   0.00007   0.00000   0.00038   0.00038   1.87326
    A5        1.95782  -0.00011   0.00000  -0.00068  -0.00068   1.95715
    A6        1.93461  -0.00003   0.00000  -0.00017  -0.00017   1.93444
    A7        1.90987   0.00009   0.00000   0.00017   0.00016   1.91004
    A8        1.89569  -0.00012   0.00000  -0.00094  -0.00094   1.89475
    A9        2.00987  -0.00014   0.00000  -0.00062  -0.00062   2.00925
   A10        1.84904  -0.00003   0.00000  -0.00013  -0.00013   1.84891
   A11        1.90093  -0.00003   0.00000  -0.00037  -0.00037   1.90055
   A12        1.89164   0.00024   0.00000   0.00195   0.00195   1.89360
   A13        1.87539  -0.00070   0.00000   0.00192   0.00190   1.87728
   A14        1.92053   0.00121   0.00000   0.00670   0.00674   1.92728
   A15        1.95271   0.00155   0.00000   0.00932   0.00934   1.96205
   A16        1.87539   0.00041   0.00000  -0.00088  -0.00093   1.87445
   A17        1.88339   0.00040   0.00000   0.00079   0.00071   1.88410
   A18        1.95271  -0.00286   0.00000  -0.01761  -0.01763   1.93508
   A19        1.89165   0.00226   0.00000   0.01158   0.01146   1.90311
   A20        1.90093   0.00012   0.00000   0.00703   0.00697   1.90789
   A21        2.00987  -0.00091   0.00000  -0.00376  -0.00380   2.00607
   A22        1.84904  -0.00041   0.00000  -0.00224  -0.00225   1.84679
   A23        1.89569  -0.00229   0.00000  -0.02442  -0.02439   1.87130
   A24        1.90987   0.00126   0.00000   0.01173   0.01174   1.92161
   A25        1.93461   0.01421   0.00000   0.14765   0.11993   2.05454
   A26        1.93932   0.01385   0.00000   0.14527   0.11757   2.05689
   A27        1.87726  -0.00068   0.00000   0.12187   0.08675   1.96401
   A28        1.95027   0.00005   0.00000   0.00203   0.00204   1.95231
   A29        1.93183   0.00023   0.00000   0.00044   0.00042   1.93225
   A30        1.95027  -0.00178   0.00000  -0.01107  -0.01108   1.93919
   A31        1.87919   0.00008   0.00000   0.00200   0.00200   1.88120
   A32        1.86960   0.00117   0.00000   0.00837   0.00838   1.87797
   A33        1.87920   0.00035   0.00000  -0.00124  -0.00127   1.87793
    D1        3.12776  -0.00001   0.00000  -0.00015  -0.00015   3.12761
    D2       -1.14441  -0.00007   0.00000  -0.00074  -0.00074  -1.14515
    D3        0.98010   0.00005   0.00000   0.00066   0.00066   0.98076
    D4        1.02422   0.00000   0.00000   0.00000   0.00000   1.02422
    D5        3.03522  -0.00006   0.00000  -0.00058  -0.00058   3.03464
    D6       -1.12345   0.00006   0.00000   0.00081   0.00081  -1.12264
    D7       -1.06899   0.00001   0.00000   0.00009   0.00009  -1.06889
    D8        0.94202  -0.00005   0.00000  -0.00049  -0.00049   0.94153
    D9        3.06653   0.00007   0.00000   0.00090   0.00090   3.06743
   D10       -0.95817  -0.00004   0.00000  -0.00118  -0.00118  -0.95935
   D11       -2.99494  -0.00078   0.00000  -0.00480  -0.00479  -2.99973
   D12        1.10606   0.00090   0.00000   0.00632   0.00631   1.11237
   D13       -3.11059  -0.00004   0.00000  -0.00066  -0.00066  -3.11126
   D14        1.13582  -0.00078   0.00000  -0.00428  -0.00427   1.13155
   D15       -1.04636   0.00090   0.00000   0.00684   0.00683  -1.03953
   D16        1.16853  -0.00011   0.00000  -0.00135  -0.00135   1.16718
   D17       -0.86824  -0.00085   0.00000  -0.00497  -0.00496  -0.87320
   D18       -3.05042   0.00083   0.00000   0.00615   0.00614  -3.04428
   D19        0.86823   0.00074   0.00000   0.01860   0.01865   0.88688
   D20       -1.13583  -0.00004   0.00000   0.01141   0.01139  -1.12444
   D21        2.99493  -0.00114   0.00000  -0.00689  -0.00691   2.98802
   D22       -1.16854   0.00070   0.00000   0.01323   0.01329  -1.15525
   D23        3.11058  -0.00009   0.00000   0.00604   0.00603   3.11661
   D24        0.95816  -0.00119   0.00000  -0.01226  -0.01227   0.94589
   D25        3.05041   0.00159   0.00000   0.02291   0.02293   3.07335
   D26        1.04635   0.00081   0.00000   0.01571   0.01568   1.06202
   D27       -1.10608  -0.00029   0.00000  -0.00258  -0.00263  -1.10871
   D28       -1.01213  -0.00004   0.00000  -0.01065  -0.01067  -1.02281
   D29        1.08212   0.00025   0.00000  -0.00647  -0.00649   1.07563
   D30       -3.10680  -0.00034   0.00000  -0.01511  -0.01512  -3.12192
   D31        1.04733   0.00025   0.00000  -0.00241  -0.00242   1.04491
   D32        3.14159   0.00054   0.00000   0.00177   0.00176  -3.13984
   D33       -1.04734  -0.00005   0.00000  -0.00687  -0.00686  -1.05420
   D34        3.10679  -0.00065   0.00000  -0.01320  -0.01319   3.09361
   D35       -1.08213  -0.00036   0.00000  -0.00902  -0.00900  -1.09114
   D36        1.01213  -0.00095   0.00000  -0.01766  -0.01763   0.99450
   D37       -3.06654  -0.00888   0.00000  -0.16827  -0.17467   3.04197
   D38       -0.98010   0.00874   0.00000   0.17771   0.18403  -0.79607
   D39       -0.94203  -0.00831   0.00000  -0.17435  -0.18064  -1.12267
   D40        1.14441   0.00931   0.00000   0.17162   0.17806   1.32247
   D41        1.06898  -0.00937   0.00000  -0.18410  -0.19050   0.87849
   D42       -3.12777   0.00825   0.00000   0.16188   0.16821  -2.95956
         Item               Value     Threshold  Converged?
 Maximum Force            0.014213     0.000015     NO 
 RMS     Force            0.003399     0.000010     NO 
 Maximum Displacement     0.268948     0.000060     NO 
 RMS     Displacement     0.052134     0.000040     NO 
 Predicted change in Energy=-1.008690D-02
 Lowest energy point so far.  Saving SCF results.
 GradGradGradGradGradGradGradGradGradGradGradGradGradGradGradGradGradGrad

 Leave Link  103 at Sat Nov  7 02:06:18 2015, MaxMem=   805306368 cpu:         7.6
 (Enter /home/hetanjin/apps/g09D01/g09/l202.exe)
                          Input orientation:                          
 ---------------------------------------------------------------------
 Center     Atomic      Atomic             Coordinates (Angstroms)
 Number     Number       Type             X           Y           Z
 ---------------------------------------------------------------------
      1          6           0       -2.599299   -0.163393   -0.287307
      2          1           0       -2.586511   -0.210114   -1.383600
      3          1           0       -2.795768    0.875642   -0.001737
      4          1           0       -3.448398   -0.763456    0.059558
      5          6           0       -1.284774   -0.686099    0.303318
      6          1           0       -1.321932   -0.613524    1.400642
      7          1           0       -1.200066   -1.758060    0.074425
      8          6           0       -0.011109    0.024545   -0.201729
      9          1           0       -0.012048   -0.033753   -1.302777
     10          6           0        1.248216   -0.709795    0.297473
     11          1           0        1.156796   -1.783686    0.059757
     12          1           0        1.294162   -0.648482    1.395875
     13          6           0        2.548108   -0.227330   -0.304577
     14          1           0        3.479064   -0.650740    0.087231
     15          1           0        2.582555   -0.068288   -1.389079
     16          6           0        0.027675    1.507077    0.193431
     17          1           0       -0.837086    2.055386   -0.195087
     18          1           0        0.031802    1.617806    1.286184
     19          1           0        0.929940    1.994862   -0.192404
 ---------------------------------------------------------------------
                    Distance matrix (angstroms):
                    1          2          3          4          5
     1  C    0.000000
     2  H    1.097363   0.000000
     3  H    1.095328   1.769802   0.000000
     4  H    1.096065   1.769672   1.765311   0.000000
     5  C    1.532983   2.183294   2.194355   2.178686   0.000000
     6  H    2.164129   3.084461   2.521205   2.518500   1.100349
     7  H    2.152130   2.538543   3.080333   2.458547   1.099394
     8  C    2.596415   2.843339   2.918679   3.536123   1.543473
     9  H    2.782419   2.581762   3.204497   3.767880   2.150564
    10  C    3.929873   4.216731   4.353958   4.702942   2.533108
    11  H    4.105369   4.309496   4.764302   4.716851   2.687989
    12  H    4.269362   4.793461   4.582990   4.928573   2.801072
    13  C    5.147833   5.246799   5.464912   6.031426   3.907811
    14  H    6.109361   6.256892   6.458427   6.928434   4.768867
    15  H    5.298543   5.171014   5.634011   6.241330   4.266395
    16  C    3.150012   3.502819   2.899764   4.154073   2.558245
    17  H    2.834939   3.099281   2.294693   3.850930   2.822157
    18  H    3.545594   4.162283   3.194480   4.391675   2.829730
    19  H    4.137946   4.318136   3.894857   5.180892   3.512584
                    6          7          8          9         10
     6  H    0.000000
     7  H    1.756037   0.000000
[...]
 1981,0.07242839,-0.20562851,-0.11063841,0.06702401,0.00039225,0.000757
 55,0.00034707,0.00450351,0.00238565,-0.00243841,0.22488331,-0.11124682
 ,-0.12632826,0.04644583,0.00261376,0.00064485,-0.00070685,-0.02476533,
 -0.01655021,0.01156083,0.11989195,0.13434328,0.06732460,0.04642543,-0.
 07786560,0.02621363,0.01911580,-0.00985614,-0.00882700,-0.00542874,0.0
 0301147,-0.07228695,-0.05232532,0.07988602,-0.15950602,0.03457210,-0.0
 3646772,-0.00027431,-0.00036578,-0.00056153,-0.00302144,0.00203904,-0.
 00116742,-0.02221822,0.01213249,-0.01121991,0.45682307,0.03711831,-0.0
 9913151,0.01645052,-0.00190971,0.00027328,-0.00037575,0.02865689,-0.01
 099547,0.01405435,-0.01601997,0.00738600,-0.00832009,-0.01471736,0.557
 28505,-0.03581882,0.01655029,-0.09769813,-0.03073781,0.01352942,-0.012
 54182,0.00921130,-0.00278857,0.00367695,0.01041808,-0.00547113,0.00414
 900,0.00243300,0.03190656,0.56458116,-0.00061237,-0.00185474,-0.030911
 18,-0.00517477,0.00263191,-0.00231926,0.00133388,-0.00009832,0.0008365
 0,0.00097387,-0.00071043,0.00046847,-0.04856249,0.00020411,0.00548737,
 0.05702553,0.00045267,0.00047816,0.01398782,0.00251647,-0.00010905,0.0
 0153228,-0.00084686,0.00051400,0.00020790,-0.00031773,0.00020734,-0.00
 055710,0.00022907,-0.05261115,-0.01750447,-0.00014789,0.05252872,-0.00
 037060,-0.00071023,-0.01207138,-0.00236526,0.00101893,0.00067367,0.000
 14730,0.00045746,0.00065337,-0.00042059,-0.00026472,0.00043581,0.00491
 047,-0.01714014,-0.29609005,-0.00547252,0.01717514,0.32471801,-0.00436
 645,0.03005880,0.00710519,0.00111506,-0.00073942,-0.00003642,-0.005047
 72,0.00222698,-0.00301964,0.00106491,-0.00034475,0.00072204,-0.0477768
 9,0.01364522,0.00381118,-0.00046284,0.00072199,0.00021648,0.05975535,0
 .00178559,-0.01196115,-0.00279778,-0.00025805,0.00025180,0.00045629,0.
 00215776,0.00069604,0.00135844,0.00031089,0.00087505,-0.00015860,0.013
 02683,-0.28524192,-0.05741514,-0.00001937,-0.00166831,-0.00126644,-0.0
 1524454,0.31195036,-0.00161935,0.01367934,0.00313344,0.00080484,0.0001
 7278,0.00055696,-0.00249385,0.00146288,-0.00009710,0.00063557,-0.00049
 657,0.00033350,0.00326801,-0.05745280,-0.06602831,0.00188544,-0.033020
 12,-0.00759984,-0.00327394,0.06197396,0.06614103,-0.02774026,-0.011375
 75,0.00801842,0.00203419,-0.00061064,0.00117454,0.00124878,-0.00059656
 ,0.00036401,-0.00290370,0.00203693,-0.00142034,-0.13893618,-0.03651864
 ,0.02833368,-0.00228957,-0.00115304,0.00131137,-0.00051698,0.00009683,
 0.00047977,0.45723734,0.00826003,0.00865919,-0.00650933,-0.00010258,0.
 00030568,0.00010902,0.00081377,-0.00048114,-0.00057906,0.00412770,-0.0
 0119290,0.00130568,-0.03267127,-0.10001589,0.01654073,0.00159203,0.000
 14937,-0.00065887,-0.02709156,-0.01695707,0.01300013,0.00667676,0.4744
 9390,-0.00921041,-0.00811058,0.00520559,-0.00175227,-0.00047325,0.0003
 0263,0.00054807,0.00030571,-0.00003093,-0.00392188,0.00133763,-0.00115
 654,0.02856239,0.01589371,-0.09442580,0.02885579,0.01641705,-0.0140284
 8,-0.00767225,-0.00469550,0.00239062,-0.00191024,0.00774571,0.58329521
 ,0.00178580,0.00031531,0.00136721,-0.00027163,0.00005913,-0.00091196,-
 0.00012651,0.00002520,-0.00001665,0.00034654,-0.00011549,-0.00031115,-
 0.00262567,0.00070986,0.02916904,-0.00453620,-0.00269231,0.00237327,0.
 00088016,0.00020856,-0.00074989,-0.04836941,-0.00047457,-0.00147820,0.
 05741248,0.00083665,0.00014409,-0.00036261,-0.00005169,0.00019652,-0.0
 0029520,-0.00007329,0.00005670,-0.00006574,0.00017122,-0.00012943,0.00
 001036,-0.00133509,0.00029597,0.01596882,-0.00271511,-0.00083658,0.001
 34683,0.00070986,0.00044362,-0.00000120,-0.00035019,-0.04966875,-0.013
 43710,0.00011909,0.05827349,-0.00098160,-0.00018236,0.00051711,0.00096
 800,-0.00024394,0.00070444,-0.00000096,0.00000837,0.00008388,-0.000005
 18,0.00008238,0.00046292,0.00098077,-0.00018405,-0.01364180,0.00191725
 ,0.00164878,0.00038798,0.00003127,0.00053394,0.00047482,-0.00157113,-0
 .01394527,-0.28966846,0.00177443,0.01424504,0.31798262,-0.00251778,-0.
 00276667,0.00244675,0.00000907,-0.00009640,-0.00008540,-0.00012491,0.0
 0018975,0.00009376,-0.00107701,0.00064971,-0.00052133,-0.03190339,0.01
 155138,-0.00945202,0.00165041,0.00058118,-0.00084075,0.00066647,0.0017
 1418,-0.00047319,-0.12523560,0.03229500,-0.02084087,-0.00362811,0.0019
 7721,-0.00168649,0.45365381,-0.00285802,-0.00207243,0.00133847,0.00020
 378,-0.00004111,-0.00003535,-0.00005104,0.00005296,0.00010363,-0.00128
 772,0.00042616,-0.00018930,-0.00806258,0.00682368,-0.00509876,-0.00015
 000,0.00000784,-0.00000378,-0.00216334,0.00032176,-0.00020716,0.038539
 33,-0.09402748,0.01504125,-0.00056021,0.00015424,-0.00015456,0.0252178
 5,0.47875299,0.00185201,0.00155651,-0.00174417,0.00004778,0.00002932,0
 .00049173,-0.00010290,-0.00012282,0.00005299,0.00092236,-0.00019453,0.
 00068004,0.00985239,-0.00698617,0.00505478,0.00111639,-0.00017733,0.00
 001798,-0.00032913,-0.00027514,0.00012870,-0.02464022,0.01674552,-0.09
 407807,-0.02853816,0.01754401,-0.01274218,-0.00722744,0.01367769,0.562
 00975,0.00028587,-0.00002090,-0.00013096,0.00002461,0.00001115,0.00003
 320,0.00013564,-0.00005447,0.00002471,0.00006479,-0.00005589,0.0000353
 5,0.00058506,0.00215716,0.00041876,-0.00004718,-0.00012440,0.00006770,
 -0.00062103,-0.00056231,-0.00019599,0.00046634,0.02650594,0.00537542,0
 .00087635,-0.00077236,0.00004577,-0.04298157,-0.03566855,-0.00883253,0
 .05850832,0.00019137,0.00053336,0.00032800,-0.00000773,-0.00005579,-0.
 00001525,-0.00034500,0.00020053,-0.00003839,0.00004792,0.00002441,0.00
 001267,-0.00218566,0.00008884,-0.00045395,0.00005699,0.00002365,0.0000
 6923,0.00077283,0.00128605,-0.00003095,-0.00042243,-0.01963652,-0.0049
 8264,-0.00033492,0.00058171,0.00049841,-0.02138724,-0.25997601,-0.0501
 4609,0.03275784,0.29113110,0.00016482,0.00015976,-0.00013418,-0.000047
 73,0.00003104,-0.00004801,-0.00001241,0.00000539,-0.00003035,0.0000589
 2,-0.00004082,0.00000566,0.00042261,-0.00012133,0.00019180,-0.00000012
 ,-0.00017466,-0.00005446,0.00017252,-0.00011397,0.00027621,-0.00084809
 ,0.01199647,0.00211037,0.00072524,-0.00001399,0.00041970,-0.00461314,-
 0.04258944,-0.05657945,0.00620864,0.05019041,0.05803772,-0.00017608,0.
 00004222,0.00014697,0.00012294,-0.00005247,0.00025158,0.00001769,0.000
 00616,0.00001027,-0.00005483,0.00000611,0.00007895,0.00161157,0.000055
 46,-0.00129101,-0.00040870,0.00006456,0.00074131,-0.00008685,-0.000028
 75,-0.00000282,-0.00257321,-0.00247906,-0.02736869,-0.00441089,0.00285
 849,-0.00164225,-0.05114468,0.00089058,-0.01499108,0.00018655,-0.00014
 824,-0.00453619,0.05748571,-0.00004881,-0.00005456,0.00008061,-0.00004
 164,-0.00002749,-0.00005608,0.00002593,-0.00002261,0.00000340,-0.00000
 614,-0.00000792,-0.00007359,-0.00074677,-0.00001709,-0.00013910,-0.000
 05131,0.00033542,-0.00020126,0.00008960,0.00002659,-0.00016931,0.00113
 273,0.00053115,0.01717573,0.00291810,-0.00117865,0.00165957,0.00090198
 ,-0.04874301,-0.02118511,-0.00229670,-0.00358844,-0.03290414,0.0014490
 0,0.05214118,-0.00019803,0.00002579,0.00048093,0.00026428,-0.00005660,
 0.00008387,-0.00001892,0.00002276,-0.00000855,-0.00011417,0.00002545,-
 0.00000842,0.00073941,0.00000427,-0.00004215,-0.00068041,-0.00019609,0
 .00070942,-0.00004992,0.00008200,0.00001089,-0.00153030,-0.00055857,-0
 .01220321,-0.00207223,0.00129529,0.00051244,-0.01465211,-0.02046093,-0
 .29450261,-0.00087401,-0.00196663,-0.00781507,0.01577514,0.02060634,0.
 32338768,-0.00050290,-0.00076308,0.00083315,0.00004933,-0.00002067,-0.
 00004320,-0.00005906,0.00000409,0.00000199,-0.00038495,0.00011900,-0.0
 0015397,-0.00317500,0.00305663,-0.00170060,-0.00009274,0.00004691,0.00
 024057,0.00029490,0.00000703,-0.00015323,-0.03209532,-0.00734347,0.007
 43913,0.00168113,-0.00089801,0.00131045,-0.18859179,-0.04403439,0.0513
 6478,-0.01171377,-0.01161700,0.00392661,0.00128661,-0.00092029,0.00033
 972,0.56262688,0.00071197,0.00080785,-0.00029719,-0.00002246,-0.000017
 99,0.00004450,-0.00018472,0.00006236,-0.00002592,0.00032642,-0.0000638
 9,0.00011741,0.00131839,-0.00165792,0.00122357,-0.00013004,-0.00013905
 ,0.00005470,0.00032931,0.00052403,0.00014351,0.00706782,0.00567231,-0.
 00750858,0.00020413,0.00020506,0.00026026,-0.04568774,-0.06245234,0.03
 131651,-0.02636962,-0.00831007,0.01325691,-0.00040906,-0.00078651,0.00
 102998,0.06413482,0.10678898,-0.00091477,-0.00049637,0.00096292,0.0001
 2495,-0.00005746,-0.00002525,-0.00004192,0.00010417,0.00000570,-0.0004
 3025,0.00014551,-0.00015644,-0.00256176,0.00218821,-0.00167711,-0.0001
 0383,0.00002741,0.00052143,0.00010357,0.00032210,-0.00016542,-0.007105
 32,-0.00761972,0.00719739,-0.00141673,-0.00039033,0.00060830,0.0474938
 3,0.02992341,-0.11313119,-0.00101072,0.00358022,0.00339025,0.03049630,
 0.01365838,-0.01352429,0.05875446,-0.13215808,0.57139591,-0.00028374,-
 0.00034903,0.00036256,0.00002001,0.00000395,-0.00003585,-0.00002673,0.
 00005880,-0.00000442,-0.00022243,0.00006558,-0.00006824,-0.00080561,0.
 00126700,-0.00079858,-0.00003304,-0.00000527,0.00010678,0.00010279,0.0
 0004307,-0.00004888,-0.00228748,-0.00355089,0.00271257,0.00023683,-0.0
 0008243,-0.00009945,-0.01301775,0.00476567,-0.01322741,-0.00094597,-0.
 00033861,0.00006074,0.00120339,0.00040878,0.00019433,-0.27261445,0.004
 52858,-0.12997667,0.28430872,-0.00011217,-0.00014510,0.00015000,0.0000
 0963,0.00000176,-0.00001278,0.00001530,0.00000751,-0.00000360,-0.00005
 562,0.00003277,-0.00002706,-0.00029451,0.00041940,-0.00039062,0.000030
 15,0.00001140,0.00002451,-0.00004020,-0.00001967,-0.00001237,0.0008711
 3,-0.00157800,0.00160861,-0.00005544,-0.00007426,-0.00017426,-0.009222
 99,0.00531097,-0.00676714,0.00074270,-0.00122779,0.00042734,0.00061588
 ,-0.00002788,0.00050955,0.00842383,-0.01303639,0.02174023,-0.00640794,
 0.00773303,0.00018055,0.00011662,-0.00016979,0.00000032,0.00000960,0.0
 0001391,0.00002245,-0.00002185,0.00000221,0.00010684,-0.00002918,0.000
 02813,0.00072019,-0.00037713,0.00063294,-0.00010080,-0.00004843,-0.000
 00305,-0.00006163,-0.00005784,0.00000648,0.00200254,0.00153747,-0.0011
 3637,0.00026575,0.00001208,0.00043014,0.01237181,-0.00107141,0.0085456
 4,0.00068430,0.00042424,0.00003261,-0.00057072,-0.00069141,0.00130249,
 -0.12918352,0.01870923,-0.12843595,0.13770548,-0.01952106,0.12784043,0
 .00002482,0.00002934,-0.00006583,-0.00005575,0.00001134,-0.00003825,-0
 .00002411,0.00001822,-0.00000753,0.00000760,-0.00000115,0.00000024,-0.
 00010008,-0.00010237,-0.00016609,0.00011080,0.00003716,-0.00025626,0.0
 0006038,0.00004922,0.00004095,0.00235799,-0.00022711,0.00171738,-0.000
 23555,-0.00000359,-0.00093000,0.00319705,-0.00320606,0.02415912,-0.000
 04102,-0.00056242,0.00004262,-0.00420994,-0.00214703,0.00246477,-0.056
 78137,-0.00892935,0.00668566,0.00443956,0.00534867,-0.02412156,0.05132
 349,0.00001915,0.00000839,-0.00002033,-0.00001763,0.00001289,-0.000012
 81,0.00001440,-0.00001347,-0.00001029,-0.00001341,-0.00001397,0.000007
 97,0.00002340,-0.00009971,-0.00003850,0.00007597,0.00000247,-0.0000578
 4,-0.00003938,-0.00006242,0.00002426,-0.00021947,0.00031713,-0.0006645
 0,-0.00030359,0.00019918,-0.00030462,0.00195075,0.00074467,0.01117539,
 0.00044657,0.00009323,-0.00108367,-0.00163726,0.00031952,-0.00052477,-
 0.00944225,-0.02716665,0.06856836,-0.00038239,0.00245669,0.00118513,0.
 00940768,0.02341242,0.00004818,0.00005950,-0.00003395,0.00002379,-0.00
 000067,0.00001839,0.00002323,-0.00002470,-0.00000194,0.00003885,-0.000
 01845,0.00000740,0.00009157,-0.00017102,0.00039278,-0.00020713,-0.0000
 3471,0.00004612,-0.00005620,-0.00005529,-0.00002179,-0.00120124,0.0006
 0716,0.00034069,0.00082229,-0.00028762,0.00050955,-0.00196111,-0.00006
 670,-0.00782616,0.00019245,0.00022730,-0.00027245,0.00205232,0.0015349
 2,0.00008628,0.00618750,0.07416939,-0.32711501,0.00317001,0.00246821,-
 0.00910759,-0.00936525,-0.07805385,0.34290869,0.00050415,-0.00086475,0
 .00014797,-0.00008407,-0.00008324,-0.00032077,-0.00076079,-0.00036336,
 0.00016424,0.00013817,0.00015889,-0.00008080,-0.00101986,-0.02948146,-
 0.00768075,0.00100818,0.00069801,-0.00068534,-0.00512731,-0.00354153,0
 .00174937,-0.08116706,-0.00452355,-0.00074579,-0.00001857,-0.00006819,
 -0.00003468,-0.00013144,0.02803573,0.00704691,-0.00475192,0.00397925,-
 0.00141710,0.00101178,-0.00059265,0.00065029,0.00044221,0.00208315,-0.
 00038931,-0.00013061,0.00008846,0.00002209,-0.00019040,0.00005584,0.00
 042479,0.58516362,-0.00064777,0.00110583,0.00029635,-0.00009806,-0.000
 01684,-0.00007829,0.00009692,-0.00070845,-0.00044638,0.00062396,-0.000
 47163,0.00010215,-0.00696351,-0.01924436,-0.00255212,0.00146863,0.0010
 8363,-0.00084546,-0.00126124,0.00027236,0.00018602,-0.00327532,-0.1745
 4128,-0.02745904,0.00005117,-0.00474464,-0.00128276,0.00584326,-0.0224
 5634,-0.00263776,0.00180467,-0.00041185,0.00042231,-0.00152506,0.00117
 117,-0.00083144,-0.00024609,-0.00091367,-0.00056644,-0.00037600,0.0000
 8250,0.00005896,0.00009700,0.00019475,0.00013252,-0.00781683,0.4797084
 8,0.00040687,-0.00024688,-0.00046502,0.00011018,-0.00001110,0.00010803
 ,-0.00028649,0.00029562,0.00054637,0.00005775,0.00033846,0.00018195,-0
 .00041851,0.01061773,0.00333720,0.00019181,0.00153029,0.00059054,0.002
 46165,0.00236471,-0.00045273,-0.00121412,-0.02934511,-0.08966245,-0.00
 109291,-0.03460404,-0.00904962,0.00036275,0.01034957,0.00320137,-0.002
 31033,0.00260845,-0.00031044,-0.00003878,0.00141297,0.00064468,0.00067
 668,0.00040680,0.00011152,-0.00009709,-0.00015847,0.00009200,-0.000112
 39,-0.00011937,0.00005013,-0.00098917,-0.03168183,0.56198751,-0.001021
 98,-0.00051187,0.00015170,0.00003198,0.00008793,0.00000742,-0.00106684
 ,-0.00139570,-0.00006961,0.00012202,-0.00021249,0.00001096,-0.00014399
 ,0.00027112,0.00039176,-0.00001270,-0.00006312,0.00002213,0.00013796,0
 .00015094,-0.00010151,0.00209181,-0.00140105,0.00165909,0.00022695,0.0
 0040581,0.00038542,0.00072792,-0.00003702,0.00052127,-0.00007251,-0.00
 019153,-0.00013694,-0.00001267,-0.00017826,-0.00000026,0.00006178,0.00
 059086,0.00001243,0.00001119,-0.00005177,0.00000460,0.00002157,-0.0001
 0511,-0.00006755,-0.20315248,0.10356828,-0.07963263,0.22081962,0.00002
 900,-0.00054492,-0.00025689,-0.00009899,-0.00004739,-0.00010114,-0.001
 24239,0.00028310,0.00031827,-0.00011202,0.00053789,-0.00003224,0.00106
 791,0.00079910,0.00044421,-0.00012973,-0.00009305,-0.00001704,-0.00000
 758,0.00018593,-0.00018438,0.02559479,-0.01460503,0.01400907,-0.000136
 48,0.00145765,-0.00033102,-0.00188780,-0.00568759,-0.00277360,0.001772
 27,-0.00138107,0.00043771,-0.00028230,0.00014876,0.00003936,-0.0008052
 0,0.00009471,0.00041868,0.00015769,0.00003586,-0.00005817,0.00011477,-
 0.00004513,-0.00014220,0.10261189,-0.11782833,0.05287456,-0.11328116,0
 .12770805,-0.00051263,0.00045165,0.00051322,-0.00001750,-0.00014055,-0
 .00018501,0.00035540,-0.00039371,0.00005652,0.00005103,-0.00026568,-0.
 00014876,-0.00042503,0.00060580,-0.00005172,-0.00006379,0.00003365,0.0
 0003487,0.00019276,0.00002242,-0.00003763,0.00881189,-0.00490992,0.003
 13616,0.00045459,0.00058055,0.00060663,-0.00036237,-0.00183214,-0.0001
 8580,0.00035529,-0.00033360,0.00055748,0.00019133,-0.00026950,0.000432
 41,-0.00008927,-0.00011587,0.00004195,0.00004040,-0.00000269,-0.000018
 96,-0.00002034,0.00003101,0.00003823,-0.07931818,0.05355909,-0.0909480
 1,0.08798823,-0.05715083,0.09363081,-0.00009921,-0.00001810,0.00004430
 ,0.00008069,0.00010557,0.00014257,-0.00005375,0.00008245,-0.00013509,-
 0.00001796,-0.00002507,0.00005228,0.00040396,0.00000615,-0.00134300,0.
 00013894,-0.00009737,0.00022515,-0.00003669,0.00009675,0.00014301,-0.0
 0103271,-0.00033709,-0.00174121,0.00070861,-0.00045562,-0.00012253,0.0
 0024783,0.00000505,0.00121407,-0.00000588,-0.00001288,-0.00017613,0.00
 012127,0.00018220,-0.00023453,-0.00016156,-0.00017029,0.00000737,-0.00
 004214,0.00007393,-0.00003181,0.00009088,-0.00002217,-0.00015435,-0.05
 049221,0.00133744,0.00925862,0.00189041,-0.00323374,-0.02631922,0.0479
 9218,-0.00011841,-0.00000220,0.00009183,0.00017257,-0.00005590,0.00009
 168,-0.00007068,0.00001520,0.00000556,-0.00006084,0.00005467,0.0000038
 8,0.00090331,0.00181779,-0.00126256,-0.00034383,-0.00006421,0.00099966
 ,0.00031432,0.00032210,0.00037478,0.00111163,-0.00389877,-0.03435178,-
 0.00022176,-0.00661696,-0.00182282,-0.00100494,0.00149986,-0.00124330,
 -0.00020884,0.00031562,0.00036133,0.00036962,-0.00006307,0.00090705,0.
 00013943,0.00009056,0.00017490,0.00005495,0.00000291,-0.00000296,-0.00
 013460,-0.00004471,0.00004395,0.00127673,-0.05068660,-0.02157347,-0.00
 225597,0.00136518,0.01707405,-0.00079574,0.05517337,-0.00020568,-0.000
 19969,0.00010727,0.00013419,0.00010538,0.00012463,-0.00008166,0.000029
 89,-0.00022040,-0.00006692,-0.00003975,0.00001668,0.00055217,0.0008248
 0,0.00045167,-0.00068271,-0.00056646,0.00060586,-0.00005086,-0.0000201
 5,0.00040859,0.00005332,-0.00156518,-0.01018804,0.00001564,-0.00214605
 ,0.00101619,-0.00040020,0.00064829,0.00044927,0.00005330,-0.00004249,0
 .00034262,0.00060833,-0.00052989,0.00053389,0.00016487,-0.00007842,-0.
 00002480,0.00008620,-0.00004422,0.00002795,-0.00012645,0.00001159,0.00
 010887,0.00909086,-0.02163319,-0.30262310,0.00104960,-0.00073466,-0.01
 191702,-0.01003408,0.02643500,0.33054557,0.00001561,0.00017635,0.00028
 571,0.00000948,-0.00004312,-0.00005968,0.00031859,-0.00024225,-0.00011
 111,0.00001061,-0.00019701,-0.00001684,0.00064550,0.00005022,-0.000685
 52,-0.00000900,0.00009999,0.00004879,-0.00003522,0.00000690,0.00010568
 ,-0.00028895,-0.00006903,-0.00022803,0.00006770,-0.00027275,-0.0003390
 8,0.00020146,0.00042094,-0.00020820,0.00004733,-0.00025253,0.00000511,
 0.00003035,-0.00007873,-0.00000306,-0.00026994,0.00060782,0.00027272,0
 .00008747,0.00002097,-0.00001689,0.00000409,0.00018891,-0.00006212,-0.
 24124139,-0.09268148,0.07266610,-0.02066004,-0.01013093,0.00868738,0.0
 0026734,0.00087302,-0.00015991,0.26079902,0.00076883,-0.00027223,0.000
 04282,-0.00006329,0.00003212,-0.00005586,-0.00021431,0.00038821,0.0000
 8644,-0.00013139,0.00022579,0.00001070,0.00202997,-0.00617410,-0.00304
 868,0.00029096,0.00017938,0.00001931,-0.00193690,-0.00124513,0.0005571
 9,-0.02860590,-0.01352591,0.01214852,0.00028420,0.00124104,-0.00031109
 ,-0.00081848,0.00136116,0.00046405,-0.00006425,0.00030906,-0.00024668,
 0.00020413,-0.00015657,0.00004718,0.00015871,0.00029862,0.00043680,0.0
 0013850,0.00001428,-0.00017392,0.00020029,-0.00031528,-0.00038775,-0.0
 9165239,-0.09159474,0.03494110,0.01461011,0.00761627,-0.00694375,0.003
 27852,0.00077517,-0.00045480,0.10152270,0.10084285,-0.00001860,-0.0000
 2852,0.00019193,0.00003736,0.00003657,0.00001246,0.00005099,-0.0000414
 1,-0.00017542,0.00002386,-0.00008309,-0.00000668,0.00028889,-0.0014174
 6,-0.00027139,-0.00021729,-0.00028096,0.00045217,-0.00026668,-0.000258
 01,0.00054158,-0.00910854,-0.00389688,0.00259968,-0.00037959,0.0006008
 9,0.00038534,0.00034751,0.00062721,0.00015738,-0.00014035,0.00007104,-
 0.00012002,0.00008906,0.00008746,-0.00008069,0.00008386,-0.00054872,0.
 00002008,-0.00008249,0.00018582,-0.00008321,0.00009921,-0.00011316,-0.
 00012825,0.07236537,0.03525731,-0.07733994,-0.01219609,-0.00675969,0.0
 0444461,0.02920457,0.01369321,-0.00976570,-0.08018105,-0.03713159,0.07
 916607\\0.00000003,-0.00000043,0.00000007,-0.00000003,0.00000028,0.000
 00001,-0.00000022,-0.00000065,0.00000071,0.00000020,-0.00000086,-0.000
 00028,0.00000011,-0.00000045,-0.00000039,0.00000024,-0.00000116,-0.000
 00033,0.00000043,-0.00000030,-0.00000107,-0.00000005,0.00000022,-0.000
 00005,-0.00000004,0.00000085,-0.00000004,0.00000024,0.00000004,-0.0000
 0046,0.00000044,0.00000030,-0.00000123,0.00000025,-0.00000051,-0.00000
 053,-0.00000007,0.00000086,-0.00000032,0.00000012,0.00000070,-0.000000
 43,0.,0.00000160,-0.00000015,-0.00000035,-0.00000007,0.00000098,-0.000
 00051,-0.00000001,0.00000133,-0.00000032,-0.00000078,0.00000100,-0.000
 00046,0.00000037,0.00000117\\\@


 ON A CLEAR DISK YOU CAN SEEK FOREVER.
 Job cpu time:       0 days  0 hours 27 minutes 37.2 seconds.
 File lengths (MBytes):  RWF=     64 Int=      0 D2E=      0 Chk=      3 Scr=      1
 Normal termination of Gaussian 09 at Sat Nov  7 02:22:28 2015.
