 Entering Gaussian System, Link 0=/share/apps/g09/g09
 Input=C6H14_3_01_1_opt_B3L.gjf
 Output=C6H14_3_01_1_opt_B3L.log
 Initial command:
 /share/apps/g09/l1.exe /state/partition1/Gau-797.inp -scrdir=/state/partition1/
 Entering Link 1 = /share/apps/g09/l1.exe PID=       800.
  
 Copyright (c) 1988,1990,1992,1993,1995,1998,2003,2009, Gaussian, Inc.
                  All Rights Reserved.
  
 This is part of the Gaussian(R) 09 program.  It is based on
 the Gaussian(R) 03 system (copyright 2003, Gaussian, Inc.),
 the Gaussian(R) 98 system (copyright 1998, Gaussian, Inc.),
 the Gaussian(R) 94 system (copyright 1995, Gaussian, Inc.),
 the Gaussian 92(TM) system (copyright 1992, Gaussian, Inc.),
 the Gaussian 90(TM) system (copyright 1990, Gaussian, Inc.),
 the Gaussian 88(TM) system (copyright 1988, Gaussian, Inc.),
 the Gaussian 86(TM) system (copyright 1986, Carnegie Mellon
 University), and the Gaussian 82(TM) system (copyright 1983,
 Carnegie Mellon University). Gaussian is a federally registered
 trademark of Gaussian, Inc.
  
 This software contains proprietary and confidential information,
 including trade secrets, belonging to Gaussian, Inc.
  
 This software is provided under written license and may be
 used, copied, transmitted, or stored only in accord with that
 written license.
  
 The following legend is applicable only to US Government
 contracts under FAR:
  
                    RESTRICTED RIGHTS LEGEND
  
 Use, reproduction and disclosure by the US Government is
 subject to restrictions as set forth in subparagraphs (a)
 and (c) of the Commercial Computer Software - Restricted
 Rights clause in FAR 52.227-19.
  
 Gaussian, Inc.
 340 Quinnipiac St., Bldg. 40, Wallingford CT 06492
  
  
 ---------------------------------------------------------------
 Warning -- This program may not be used in any manner that
 competes with the business of Gaussian, Inc. or will provide
 assistance to any competitor of Gaussian, Inc.  The licensee
 of this program is prohibited from giving any competitor of
 Gaussian, Inc. access to this program.  By using this program,
 the user acknowledges that Gaussian, Inc. is engaged in the
 business of creating and licensing software in the field of
 computational chemistry and represents and warrants to the
 licensee that it is not a competitor of Gaussian, Inc. and that
 it will not use this program in any manner prohibited above.
 ---------------------------------------------------------------
  

 Cite this work as:
 Gaussian 09, Revision A.01,
 M. J. Frisch, G. W. Trucks, H. B. Schlegel, G. E. Scuseria, 
 M. A. Robb, J. R. Cheeseman, G. Scalmani, V. Barone, B. Mennucci, 
 G. A. Petersson, H. Nakatsuji, M. Caricato, X. Li, H. P. Hratchian, 
 A. F. Izmaylov, J. Bloino, G. Zheng, J. L. Sonnenberg, M. Hada, 
 M. Ehara, K. Toyota, R. Fukuda, J. Hasegawa, M. Ishida, T. Nakajima, 
 Y. Honda, O. Kitao, H. Nakai, T. Vreven, J. A. Montgomery, Jr., 
 J. E. Peralta, F. Ogliaro, M. Bearpark, J. J. Heyd, E. Brothers, 
 K. N. Kudin, V. N. Staroverov, R. Kobayashi, J. Normand, 
 K. Raghavachari, A. Rendell, J. C. Burant, S. S. Iyengar, J. Tomasi, 
 M. Cossi, N. Rega, J. M. Millam, M. Klene, J. E. Knox, J. B. Cross, 
 V. Bakken, C. Adamo, J. Jaramillo, R. Gomperts, R. E. Stratmann, 
 O. Yazyev, A. J. Austin, R. Cammi, C. Pomelli, J. W. Ochterski, 
 R. L. Martin, K. Morokuma, V. G. Zakrzewski, G. A. Voth, 
 P. Salvador, J. J. Dannenberg, S. Dapprich, A. D. Daniels, 
 O. Farkas, J. B. Foresman, J. V. Ortiz, J. Cioslowski, 
 and D. J. Fox, Gaussian, Inc., Wallingford CT, 2009.
 
 ******************************************
 Gaussian 09:  EM64L-G09RevA.01  8-May-2009
                18-Sep-2015 
 ******************************************
 %mem=3GB
 %nprocshared=2
 Will use up to    2 processors via shared memory.
 -----------------------------------------
 #p B3LYP/6-31G(d) opt=tight int=ultrafine
 -----------------------------------------
 1/7=10,14=-1,18=20,19=15,26=3,38=1/1,3;
 2/9=110,12=2,17=6,18=5,40=1/2;
 3/5=1,6=6,7=1,11=2,16=1,25=1,30=1,71=1,74=-5,75=-5/1,2,3;
 4//1;
 5/5=2,38=5/2;
 6/7=2,8=2,9=2,10=2,28=1/1;
 7//1,2,3,16;
 1/7=10,14=-1,18=20,19=15/3(2);
 2/9=110/2;
 99//99;
 2/9=110/2;
 3/5=1,6=6,7=1,11=2,16=1,25=1,30=1,71=1,74=-5,75=-5/1,2,3;
 4/5=5,16=3/1;
 5/5=2,38=5/2;
 7//1,2,3,16;
 1/7=10,14=-1,18=20,19=15/3(-5);
 2/9=110/2;
 6/7=2,8=2,9=2,10=2,19=2,28=1/1;
 99/9=1/99;
 Leave Link    1 at Fri Sep 18 13:23:16 2015, MaxMem=  402653184 cpu:       0.1
 (Enter /share/apps/g09/l101.exe)
 ---------------------------------------------
 using B3LYP/6-31G(d) to do opt and freq calc.
 ---------------------------------------------
 Symbolic Z-matrix:
 Charge =  0 Multiplicity = 1
 C                     2.43232  -0.43246  -0.04585 
 H                     2.73589  -0.40606   1.00657 
 H                     2.69437   0.53618  -0.48678 
 H                     3.04038  -1.19513  -0.54463 
 C                     0.94246  -0.73244  -0.1955 
 H                     0.67957  -0.79628  -1.26876 
 H                     0.72543  -1.73319   0.22637 
 C                     0.05419   0.32217   0.49811 
 H                     0.4918    0.53314   1.50758 
 C                    -1.37506  -0.21746   0.73239 
 H                    -1.96095   0.55067   1.27515 
 H                    -1.32399  -1.08995   1.41314 
 C                    -2.11994  -0.61181  -0.54027 
 H                    -1.61591  -1.42858  -1.06845 
 H                    -3.13838  -0.94561  -0.31324 
 H                    -2.19659   0.2303   -1.23776 
 C                     0.03097   1.63871  -0.28757 
 H                     1.03809   2.05722  -0.38756 
 H                    -0.36659   1.49833  -1.29858 
 H                    -0.59276   2.38871   0.20911 
 
 NAtoms=     20 NQM=     20 NQMF=      0 NMic=      0 NMicF=      0 NTot=     20.
                    Isotopes and Nuclear Properties:
 (Nuclear quadrupole moments (NQMom) in fm**2, nuclear magnetic moments (NMagM)
  in nuclear magnetons)

  Atom         1           2           3           4           5           6           7           8           9          10
 IAtWgt=          12           1           1           1          12           1           1          12           1          12
 AtmWgt=  12.0000000   1.0078250   1.0078250   1.0078250  12.0000000   1.0078250   1.0078250  12.0000000   1.0078250  12.0000000
 NucSpn=           0           1           1           1           0           1           1           0           1           0
 AtZEff=   0.0000000   0.0000000   0.0000000   0.0000000   0.0000000   0.0000000   0.0000000   0.0000000   0.0000000   0.0000000
 NQMom=    0.0000000   0.0000000   0.0000000   0.0000000   0.0000000   0.0000000   0.0000000   0.0000000   0.0000000   0.0000000
 NMagM=    0.0000000   2.7928460   2.7928460   2.7928460   0.0000000   2.7928460   2.7928460   0.0000000   2.7928460   0.0000000

  Atom        11          12          13          14          15          16          17          18          19          20
 IAtWgt=           1           1          12           1           1           1          12           1           1           1
 AtmWgt=   1.0078250   1.0078250  12.0000000   1.0078250   1.0078250   1.0078250  12.0000000   1.0078250   1.0078250   1.0078250
 NucSpn=           1           1           0           1           1           1           0           1           1           1
 AtZEff=   0.0000000   0.0000000   0.0000000   0.0000000   0.0000000   0.0000000   0.0000000   0.0000000   0.0000000   0.0000000
 NQMom=    0.0000000   0.0000000   0.0000000   0.0000000   0.0000000   0.0000000   0.0000000   0.0000000   0.0000000   0.0000000
 NMagM=    2.7928460   2.7928460   0.0000000   2.7928460   2.7928460   2.7928460   0.0000000   2.7928460   2.7928460   2.7928460
 Leave Link  101 at Fri Sep 18 13:23:16 2015, MaxMem=  402653184 cpu:       0.1
 (Enter /share/apps/g09/l103.exe)

 GradGradGradGradGradGradGradGradGradGradGradGradGradGradGradGradGradGrad
 Berny optimization.
 Initialization pass.
                           ----------------------------
                           !    Initial Parameters    !
                           ! (Angstroms and Degrees)  !
 --------------------------                            --------------------------
 ! Name  Definition              Value          Derivative Info.                !
 --------------------------------------------------------------------------------
 ! R1    R(1,2)                  1.0957         estimate D2E/DX2                !
 ! R2    R(1,3)                  1.0961         estimate D2E/DX2                !
 ! R3    R(1,4)                  1.0955         estimate D2E/DX2                !
 ! R4    R(1,5)                  1.5271         estimate D2E/DX2                !
 ! R5    R(5,6)                  1.1068         estimate D2E/DX2                !
 ! R6    R(5,7)                  1.1075         estimate D2E/DX2                !
 ! R7    R(5,8)                  1.5435         estimate D2E/DX2                !
 ! R8    R(8,9)                  1.1203         estimate D2E/DX2                !
 ! R9    R(8,10)                 1.5456         estimate D2E/DX2                !
 ! R10   R(8,17)                 1.5333         estimate D2E/DX2                !
 ! R11   R(10,11)                1.1081         estimate D2E/DX2                !
 ! R12   R(10,12)                1.1078         estimate D2E/DX2                !
 ! R13   R(10,13)                1.5264         estimate D2E/DX2                !
 ! R14   R(13,14)                1.0955         estimate D2E/DX2                !
 ! R15   R(13,15)                1.0955         estimate D2E/DX2                !
 ! R16   R(13,16)                1.0961         estimate D2E/DX2                !
 ! R17   R(17,18)                1.0952         estimate D2E/DX2                !
 ! R18   R(17,19)                1.0954         estimate D2E/DX2                !
 ! R19   R(17,20)                1.0946         estimate D2E/DX2                !
 ! A1    A(2,1,3)              107.3901         estimate D2E/DX2                !
 ! A2    A(2,1,4)              107.4765         estimate D2E/DX2                !
 ! A3    A(2,1,5)              111.6645         estimate D2E/DX2                !
 ! A4    A(3,1,4)              107.4206         estimate D2E/DX2                !
 ! A5    A(3,1,5)              111.5573         estimate D2E/DX2                !
 ! A6    A(4,1,5)              111.108          estimate D2E/DX2                !
 ! A7    A(1,5,6)              109.7594         estimate D2E/DX2                !
 ! A8    A(1,5,7)              109.3509         estimate D2E/DX2                !
 ! A9    A(1,5,8)              112.5324         estimate D2E/DX2                !
 ! A10   A(6,5,7)              105.7065         estimate D2E/DX2                !
 ! A11   A(6,5,8)              109.7839         estimate D2E/DX2                !
 ! A12   A(7,5,8)              109.4781         estimate D2E/DX2                !
 ! A13   A(5,8,9)              107.9871         estimate D2E/DX2                !
 ! A14   A(5,8,10)             111.2072         estimate D2E/DX2                !
 ! A15   A(5,8,17)             111.4148         estimate D2E/DX2                !
 ! A16   A(9,8,10)             106.881          estimate D2E/DX2                !
 ! A17   A(9,8,17)             107.8139         estimate D2E/DX2                !
 ! A18   A(10,8,17)            111.3121         estimate D2E/DX2                !
 ! A19   A(8,10,11)            108.7329         estimate D2E/DX2                !
 ! A20   A(8,10,12)            108.9951         estimate D2E/DX2                !
 ! A21   A(8,10,13)            114.5236         estimate D2E/DX2                !
 ! A22   A(11,10,12)           105.6248         estimate D2E/DX2                !
 ! A23   A(11,10,13)           109.2353         estimate D2E/DX2                !
 ! A24   A(12,10,13)           109.3517         estimate D2E/DX2                !
 ! A25   A(10,13,14)           111.7202         estimate D2E/DX2                !
 ! A26   A(10,13,15)           111.0741         estimate D2E/DX2                !
 ! A27   A(10,13,16)           111.48           estimate D2E/DX2                !
 ! A28   A(14,13,15)           107.4849         estimate D2E/DX2                !
 ! A29   A(14,13,16)           107.3479         estimate D2E/DX2                !
 ! A30   A(15,13,16)           107.5142         estimate D2E/DX2                !
 ! A31   A(8,17,18)            111.1593         estimate D2E/DX2                !
 ! A32   A(8,17,19)            111.6157         estimate D2E/DX2                !
 ! A33   A(8,17,20)            111.372          estimate D2E/DX2                !
 ! A34   A(18,17,19)           107.3647         estimate D2E/DX2                !
 ! A35   A(18,17,20)           107.674          estimate D2E/DX2                !
 ! A36   A(19,17,20)           107.4446         estimate D2E/DX2                !
 ! D1    D(2,1,5,6)           -177.4961         estimate D2E/DX2                !
 ! D2    D(2,1,5,7)            -61.9635         estimate D2E/DX2                !
 ! D3    D(2,1,5,8)             59.9287         estimate D2E/DX2                !
 ! D4    D(3,1,5,6)             62.3243         estimate D2E/DX2                !
 ! D5    D(3,1,5,7)            177.857          estimate D2E/DX2                !
 ! D6    D(3,1,5,8)            -60.2509         estimate D2E/DX2                !
 ! D7    D(4,1,5,6)            -57.5144         estimate D2E/DX2                !
 ! D8    D(4,1,5,7)             58.0183         estimate D2E/DX2                !
 ! D9    D(4,1,5,8)            179.9104         estimate D2E/DX2                !
 ! D10   D(1,5,8,9)            -44.6746         estimate D2E/DX2                !
 ! D11   D(1,5,8,10)          -161.6407         estimate D2E/DX2                !
 ! D12   D(1,5,8,17)            73.5437         estimate D2E/DX2                !
 ! D13   D(6,5,8,9)           -167.236          estimate D2E/DX2                !
 ! D14   D(6,5,8,10)            75.7979         estimate D2E/DX2                !
 ! D15   D(6,5,8,17)           -49.0177         estimate D2E/DX2                !
 ! D16   D(7,5,8,9)             77.1453         estimate D2E/DX2                !
 ! D17   D(7,5,8,10)           -39.8208         estimate D2E/DX2                !
 ! D18   D(7,5,8,17)          -164.6364         estimate D2E/DX2                !
 ! D19   D(5,8,10,11)          177.2351         estimate D2E/DX2                !
 ! D20   D(5,8,10,12)           62.5572         estimate D2E/DX2                !
 ! D21   D(5,8,10,13)          -60.2795         estimate D2E/DX2                !
 ! D22   D(9,8,10,11)           59.5962         estimate D2E/DX2                !
 ! D23   D(9,8,10,12)          -55.0818         estimate D2E/DX2                !
 ! D24   D(9,8,10,13)         -177.9184         estimate D2E/DX2                !
 ! D25   D(17,8,10,11)         -57.8915         estimate D2E/DX2                !
 ! D26   D(17,8,10,12)        -172.5695         estimate D2E/DX2                !
 ! D27   D(17,8,10,13)          64.5939         estimate D2E/DX2                !
 ! D28   D(5,8,17,18)          -59.4765         estimate D2E/DX2                !
 ! D29   D(5,8,17,19)           60.3653         estimate D2E/DX2                !
 ! D30   D(5,8,17,20)         -179.5464         estimate D2E/DX2                !
 ! D31   D(9,8,17,18)           58.8459         estimate D2E/DX2                !
 ! D32   D(9,8,17,19)          178.6876         estimate D2E/DX2                !
 ! D33   D(9,8,17,20)          -61.224          estimate D2E/DX2                !
 ! D34   D(10,8,17,18)         175.7667         estimate D2E/DX2                !
 ! D35   D(10,8,17,19)         -64.3916         estimate D2E/DX2                !
 ! D36   D(10,8,17,20)          55.6968         estimate D2E/DX2                !
 ! D37   D(8,10,13,14)          62.3804         estimate D2E/DX2                !
 ! D38   D(8,10,13,15)        -177.6128         estimate D2E/DX2                !
 ! D39   D(8,10,13,16)         -57.7303         estimate D2E/DX2                !
 ! D40   D(11,10,13,14)       -175.4071         estimate D2E/DX2                !
 ! D41   D(11,10,13,15)        -55.4003         estimate D2E/DX2                !
 ! D42   D(11,10,13,16)         64.4822         estimate D2E/DX2                !
 ! D43   D(12,10,13,14)        -60.2634         estimate D2E/DX2                !
 ! D44   D(12,10,13,15)         59.7434         estimate D2E/DX2                !
 ! D45   D(12,10,13,16)        179.6259         estimate D2E/DX2                !
 --------------------------------------------------------------------------------
 Trust Radius=3.00D-01 FncErr=1.00D-07 GrdErr=1.00D-06
 Number of steps in this run= 110 maximum allowed number of steps= 120.
 GradGradGradGradGradGradGradGradGradGradGradGradGradGradGradGradGradGrad

 Leave Link  103 at Fri Sep 18 13:23:16 2015, MaxMem=  402653184 cpu:       0.0
 (Enter /share/apps/g09/l202.exe)
                          Input orientation:                          
 ---------------------------------------------------------------------
 Center     Atomic      Atomic             Coordinates (Angstroms)
 Number     Number       Type             X           Y           Z
 ---------------------------------------------------------------------
      1          6           0        2.432322   -0.432462   -0.045853
      2          1           0        2.735891   -0.406062    1.006572
      3          1           0        2.694374    0.536178   -0.486780
      4          1           0        3.040375   -1.195133   -0.544627
      5          6           0        0.942456   -0.732442   -0.195502
      6          1           0        0.679571   -0.796280   -1.268755
      7          1           0        0.725428   -1.733188    0.226374
      8          6           0        0.054188    0.322166    0.498109
      9          1           0        0.491798    0.533143    1.507576
     10          6           0       -1.375061   -0.217463    0.732392
     11          1           0       -1.960948    0.550669    1.275150
     12          1           0       -1.323987   -1.089952    1.413139
     13          6           0       -2.119939   -0.611806   -0.540274
     14          1           0       -1.615912   -1.428582   -1.068455
     15          1           0       -3.138377   -0.945609   -0.313238
     16          1           0       -2.196593    0.230304   -1.237758
     17          6           0        0.030972    1.638714   -0.287567
     18          1           0        1.038094    2.057216   -0.387563
     19          1           0       -0.366588    1.498333   -1.298577
     20          1           0       -0.592762    2.388712    0.209110
 ---------------------------------------------------------------------
                    Distance matrix (angstroms):
                    1          2          3          4          5
     1  C    0.000000
     2  H    1.095650   0.000000
     3  H    1.096062   1.766250   0.000000
     4  H    1.095523   1.766794   1.766494   0.000000
     5  C    1.527116   2.183556   2.182534   2.176519   0.000000
     6  H    2.167946   3.091575   2.538968   2.501368   1.106822
     7  H    2.163211   2.532180   3.087938   2.498585   1.107508
     8  C    2.553601   2.824957   2.826020   3.508106   1.543475
     9  H    2.666677   2.483760   2.971331   3.700503   2.169164
    10  C    3.892050   4.124399   4.314471   4.699222   2.548936
    11  H    4.691739   4.800809   4.977613   5.601129   3.498420
    12  H    4.082990   4.137102   4.732992   4.784513   2.802196
    13  C    4.582543   5.100407   4.949580   5.193181   3.084102
    14  H    4.292571   4.928435   4.772546   4.691471   2.791398
    15  H    5.600670   6.044835   6.020531   6.188116   4.088092
    16  H    4.825635   5.456315   4.957730   5.471575   3.444823
    17  C    3.180358   3.629393   2.889460   4.141651   2.541980
    18  H    2.873871   3.300586   2.250925   3.822509   2.797897
    19  H    3.623698   4.308806   3.309720   4.408015   2.811890
    20  H    4.144293   4.418896   3.836849   5.158658   3.501743
                    6          7          8          9         10
     6  H    0.000000
     7  H    1.765024   0.000000
     8  C    2.182621   2.179193   0.000000
     9  H    3.083932   2.613870   1.120285   0.000000
    10  C    2.925941   2.639229   1.545587   2.156266   0.000000
    11  H    3.906157   3.678661   2.171815   2.463796   1.108096
    12  H    3.360512   2.454030   2.175023   2.437300   1.107819
    13  C    2.898615   3.152992   2.584061   3.510807   1.526443
    14  H    2.389387   2.692813   2.882443   3.863514   2.183545
    15  H    3.938533   3.980006   3.529590   4.322065   2.175505
    16  H    3.054039   3.812767   2.843886   3.854350   2.181032
    17  C    2.704183   3.480823   1.533338   2.158051   2.542172
    18  H    3.007903   3.852511   2.182403   2.492547   3.500254
    19  H    2.522020   3.736402   2.188265   3.089161   2.843556
    20  H    3.734580   4.327584   2.184646   2.511060   2.770914
                   11         12         13         14         15
    11  H    0.000000
    12  H    1.765332   0.000000
    13  C    2.161571   2.162865   0.000000
    14  H    3.086903   2.521547   1.095510   0.000000
    15  H    2.479549   2.508630   1.095530   1.766781   0.000000
    16  H    2.544183   3.087357   1.096134   1.765717   1.767616
    17  C    2.755662   3.489116   3.123319   3.567957   4.089518
    18  H    3.745471   4.327427   4.137653   4.433751   5.144453
    19  H    3.172400   3.869010   2.846392   3.190705   3.824469
    20  H    2.527207   3.753063   3.449196   4.153401   4.227375
                   16         17         18         19         20
    16  H    0.000000
    17  C    2.801522   0.000000
    18  H    3.810989   1.095188   0.000000
    19  H    2.227221   1.095400   1.765058   0.000000
    20  H    3.053592   1.094637   1.767937   1.765517   0.000000
 Stoichiometry    C6H14
 Framework group  C1[X(C6H14)]
 Deg. of freedom    54
 Full point group                 C1      NOp   1
 Largest Abelian subgroup         C1      NOp   1
 Largest concise Abelian subgroup C1      NOp   1
                         Standard orientation:                         
 ---------------------------------------------------------------------
 Center     Atomic      Atomic             Coordinates (Angstroms)
 Number     Number       Type             X           Y           Z
 ---------------------------------------------------------------------
      1          6           0        2.432322   -0.432462   -0.045853
      2          1           0        2.735891   -0.406062    1.006572
      3          1           0        2.694374    0.536178   -0.486780
      4          1           0        3.040375   -1.195133   -0.544627
      5          6           0        0.942456   -0.732442   -0.195502
      6          1           0        0.679571   -0.796280   -1.268755
      7          1           0        0.725428   -1.733188    0.226374
      8          6           0        0.054188    0.322166    0.498109
      9          1           0        0.491798    0.533143    1.507576
     10          6           0       -1.375061   -0.217463    0.732392
     11          1           0       -1.960948    0.550669    1.275150
     12          1           0       -1.323987   -1.089952    1.413139
     13          6           0       -2.119939   -0.611806   -0.540274
     14          1           0       -1.615912   -1.428582   -1.068455
     15          1           0       -3.138377   -0.945609   -0.313238
     16          1           0       -2.196593    0.230304   -1.237758
     17          6           0        0.030972    1.638714   -0.287567
     18          1           0        1.038094    2.057216   -0.387563
     19          1           0       -0.366588    1.498333   -1.298577
     20          1           0       -0.592762    2.388712    0.209110
 ---------------------------------------------------------------------
 Rotational constants (GHZ):      5.1520909      2.1358301      1.8164138
 Leave Link  202 at Fri Sep 18 13:23:16 2015, MaxMem=  402653184 cpu:       0.0
 (Enter /share/apps/g09/l301.exe)
 Standard basis: 6-31G(d) (6D, 7F)
 Ernie: Thresh=  0.10000D-02 Tol=  0.10000D-05 Strict=F.
 There are   118 symmetry adapted basis functions of A   symmetry.
 Integral buffers will be    131072 words long.
 Raffenetti 2 integral format.
 Two-electron integral symmetry is turned on.
   118 basis functions,   224 primitive gaussians,   118 cartesian basis functions
    25 alpha electrons       25 beta electrons
       nuclear repulsion energy       258.6085299118 Hartrees.
 IExCor=  402 DFT=T Ex+Corr=B3LYP ExCW=0 ScaHFX=  0.200000
 ScaDFX=  0.800000  0.720000  1.000000  0.810000 ScalE2=  1.000000  1.000000
 IRadAn=      5 IRanWt=     -1 IRanGd=            0 ICorTp=0
 NAtoms=   20 NActive=   20 NUniq=   20 SFac= 7.50D-01 NAtFMM=   80 NAOKFM=F Big=F
 Leave Link  301 at Fri Sep 18 13:23:16 2015, MaxMem=  402653184 cpu:       0.1
 (Enter /share/apps/g09/l302.exe)
 NPDir=0 NMtPBC=     1 NCelOv=     1 NCel=       1 NClECP=     1 NCelD=      1
         NCelK=      1 NCelE2=     1 NClLst=     1 CellRange=     0.0.
 One-electron integrals computed using PRISM.
 NBasis=   118 RedAO= T  NBF=   118
 NBsUse=   118 1.00D-06 NBFU=   118
 Precomputing XC quadrature grid using
 IXCGrd= 2 IRadAn=           5 IRanWt=          -1 IRanGd=           0 AccXCQ= 1.00D-10.
 NRdTot=    1644 NPtTot=      439726 NUsed=      451507 NTot=      451539
 NSgBfM=   118   118   118   118   118 NAtAll=    20    20.
 Leave Link  302 at Fri Sep 18 13:23:17 2015, MaxMem=  402653184 cpu:       1.2
 (Enter /share/apps/g09/l303.exe)
 DipDrv:  MaxL=1.
 Leave Link  303 at Fri Sep 18 13:23:17 2015, MaxMem=  402653184 cpu:       0.0
 (Enter /share/apps/g09/l401.exe)
 Harris functional with IExCor=  402 diagonalized for initial guess.
 ExpMin= 1.61D-01 ExpMax= 3.05D+03 ExpMxC= 4.57D+02 IAcc=3 IRadAn=         5 AccDes= 0.00D+00
 HarFok:  IExCor=  402 AccDes= 0.00D+00 IRadAn=         5 IDoV= 1
 ScaDFX=  1.000000  1.000000  1.000000  1.000000
 FoFCou: FMM=F IPFlag=           0 FMFlag=      100000 FMFlg1=           0
         NFxFlg=           0 DoJE=T BraDBF=F KetDBF=T FulRan=T
         Omega=  0.000000  0.000000  1.000000  0.000000  0.000000 ICntrl=     500 IOpCl=  0
         NMat0=    1 NMatS0=    1 NMatT0=    0 NMatD0=    1 NMtDS0=    0 NMtDT0=    0
         I1Cent=           4 NGrid=           0.
 Petite list used in FoFCou.
 Harris En= -237.176694825483    
 Initial guess orbital symmetries:
       Occupied  (A) (A) (A) (A) (A) (A) (A) (A) (A) (A) (A) (A)
                 (A) (A) (A) (A) (A) (A) (A) (A) (A) (A) (A) (A)
                 (A)
       Virtual   (A) (A) (A) (A) (A) (A) (A) (A) (A) (A) (A) (A)
                 (A) (A) (A) (A) (A) (A) (A) (A) (A) (A) (A) (A)
                 (A) (A) (A) (A) (A) (A) (A) (A) (A) (A) (A) (A)
                 (A) (A) (A) (A) (A) (A) (A) (A) (A) (A) (A) (A)
                 (A) (A) (A) (A) (A) (A) (A) (A) (A) (A) (A) (A)
                 (A) (A) (A) (A) (A) (A) (A) (A) (A) (A) (A) (A)
                 (A) (A) (A) (A) (A) (A) (A) (A) (A) (A) (A) (A)
                 (A) (A) (A) (A) (A) (A) (A) (A) (A)
 The electronic state of the initial guess is 1-A.
 Leave Link  401 at Fri Sep 18 13:23:22 2015, MaxMem=  402653184 cpu:      10.3
 (Enter /share/apps/g09/l502.exe)
 Closed shell SCF:
 Requested convergence on RMS density matrix=1.00D-08 within 128 cycles.
 Requested convergence on MAX density matrix=1.00D-06.
 Requested convergence on             energy=1.00D-06.
 No special actions if energy rises.
 Using DIIS extrapolation, IDIIS=  1040.
 Integral symmetry usage will be decided dynamically.
       451314 words used for storage of precomputed grid.
 Keep R1 ints in memory in canonical form, NReq=26105369.
 IEnd=      512858 IEndB=      512858 NGot=   402653184 MDV=   377520250
 LenX=   377520250 LenY=   377505885
 Symmetry not used in FoFDir.
 MinBra= 0 MaxBra= 2 Meth= 1.
 IRaf=       0 NMat=   1 IRICut=       1 DoRegI=T DoRafI=F ISym2E= 0 JSym2E=0.
 Integral accuracy reduced to 1.0D-05 until final iterations.

 Cycle   1  Pass 0  IDiag  1:
 E= -236.788854480066    
 DIIS: error= 4.01D-02 at cycle   1 NSaved=   1.
 NSaved= 1 IEnMin= 1 EnMin= -236.788854480066     IErMin= 1 ErrMin= 4.01D-02
 ErrMax= 4.01D-02 EMaxC= 1.00D-01 BMatC= 2.59D-01 BMatP= 2.59D-01
 IDIUse=3 WtCom= 5.99D-01 WtEn= 4.01D-01
 Coeff-Com:  0.100D+01
 Coeff-En:   0.100D+01
 Coeff:      0.100D+01
 Gap=     0.330 Goal=   None    Shift=    0.000
 GapD=    0.330 DampG=1.000 DampE=0.500 DampFc=0.5000 IDamp=-1.
 Damping current iteration by 5.00D-01
 RMSDP=1.02D-02 MaxDP=1.53D-01              OVMax= 1.85D-01

 Cycle   2  Pass 0  IDiag  1:
 E= -236.915263046785     Delta-E=       -0.126408566719 Rises=F Damp=T
 DIIS: error= 8.27D-03 at cycle   2 NSaved=   2.
 NSaved= 2 IEnMin= 2 EnMin= -236.915263046785     IErMin= 2 ErrMin= 8.27D-03
 ErrMax= 8.27D-03 EMaxC= 1.00D-01 BMatC= 1.09D-02 BMatP= 2.59D-01
 IDIUse=3 WtCom= 9.17D-01 WtEn= 8.27D-02
 Coeff-Com:  0.933D-01 0.907D+00
 Coeff-En:   0.154D+00 0.846D+00
 Coeff:      0.984D-01 0.902D+00
 Gap=     0.393 Goal=   None    Shift=    0.000
 RMSDP=1.70D-03 MaxDP=2.56D-02 DE=-1.26D-01 OVMax= 1.04D-01

 Cycle   3  Pass 0  IDiag  1:
 E= -237.079516564955     Delta-E=       -0.164253518169 Rises=F Damp=F
 DIIS: error= 2.65D-03 at cycle   3 NSaved=   3.
 NSaved= 3 IEnMin= 3 EnMin= -237.079516564955     IErMin= 3 ErrMin= 2.65D-03
 ErrMax= 2.65D-03 EMaxC= 1.00D-01 BMatC= 1.30D-03 BMatP= 1.09D-02
 IDIUse=3 WtCom= 9.74D-01 WtEn= 2.65D-02
 Coeff-Com:  0.112D-01 0.209D+00 0.780D+00
 Coeff-En:   0.000D+00 0.000D+00 0.100D+01
 Coeff:      0.109D-01 0.203D+00 0.786D+00
 Gap=     0.382 Goal=   None    Shift=    0.000
 RMSDP=5.36D-04 MaxDP=1.10D-02 DE=-1.64D-01 OVMax= 9.51D-03

 Cycle   4  Pass 0  IDiag  1:
 E= -237.080332249041     Delta-E=       -0.000815684086 Rises=F Damp=F
 DIIS: error= 1.40D-03 at cycle   4 NSaved=   4.
 NSaved= 4 IEnMin= 4 EnMin= -237.080332249041     IErMin= 4 ErrMin= 1.40D-03
 ErrMax= 1.40D-03 EMaxC= 1.00D-01 BMatC= 4.84D-04 BMatP= 1.30D-03
 IDIUse=3 WtCom= 9.86D-01 WtEn= 1.40D-02
 Coeff-Com:  0.465D-03 0.347D-01 0.383D+00 0.582D+00
 Coeff-En:   0.000D+00 0.000D+00 0.245D+00 0.755D+00
 Coeff:      0.458D-03 0.342D-01 0.381D+00 0.584D+00
 Gap=     0.384 Goal=   None    Shift=    0.000
 RMSDP=2.08D-04 MaxDP=4.42D-03 DE=-8.16D-04 OVMax= 4.45D-03

 Cycle   5  Pass 0  IDiag  1:
 E= -237.080783226491     Delta-E=       -0.000450977450 Rises=F Damp=F
 DIIS: error= 2.94D-04 at cycle   5 NSaved=   5.
 NSaved= 5 IEnMin= 5 EnMin= -237.080783226491     IErMin= 5 ErrMin= 2.94D-04
 ErrMax= 2.94D-04 EMaxC= 1.00D-01 BMatC= 2.27D-05 BMatP= 4.84D-04
 IDIUse=3 WtCom= 9.97D-01 WtEn= 2.94D-03
 Coeff-Com:  0.402D-04-0.107D-02 0.103D+00 0.248D+00 0.650D+00
 Coeff-En:   0.000D+00 0.000D+00 0.000D+00 0.000D+00 0.100D+01
 Coeff:      0.400D-04-0.107D-02 0.103D+00 0.248D+00 0.651D+00
 Gap=     0.384 Goal=   None    Shift=    0.000
 RMSDP=4.19D-05 MaxDP=8.85D-04 DE=-4.51D-04 OVMax= 9.06D-04

 Cycle   6  Pass 0  IDiag  1:
 E= -237.080804680152     Delta-E=       -0.000021453661 Rises=F Damp=F
 DIIS: error= 3.73D-05 at cycle   6 NSaved=   6.
 NSaved= 6 IEnMin= 6 EnMin= -237.080804680152     IErMin= 6 ErrMin= 3.73D-05
 ErrMax= 3.73D-05 EMaxC= 1.00D-01 BMatC= 2.66D-07 BMatP= 2.27D-05
 IDIUse=1 WtCom= 1.00D+00 WtEn= 0.00D+00
 Coeff-Com:  0.120D-03-0.109D-02 0.275D-01 0.721D-01 0.222D+00 0.679D+00
 Coeff:      0.120D-03-0.109D-02 0.275D-01 0.721D-01 0.222D+00 0.679D+00
 Gap=     0.384 Goal=   None    Shift=    0.000
 RMSDP=7.64D-06 MaxDP=9.73D-05 DE=-2.15D-05 OVMax= 1.41D-04

 Initial convergence to 1.0D-05 achieved.  Increase integral accuracy.
 Cycle   7  Pass 1  IDiag  1:
 E= -237.080794768545     Delta-E=        0.000009911607 Rises=F Damp=F
 DIIS: error= 6.45D-06 at cycle   1 NSaved=   1.
 NSaved= 1 IEnMin= 1 EnMin= -237.080794768545     IErMin= 1 ErrMin= 6.45D-06
 ErrMax= 6.45D-06 EMaxC= 1.00D-01 BMatC= 1.38D-08 BMatP= 1.38D-08
 IDIUse=1 WtCom= 1.00D+00 WtEn= 0.00D+00
 Coeff-Com:  0.100D+01
 Coeff:      0.100D+01
 Gap=     0.384 Goal=   None    Shift=    0.000
 RMSDP=7.64D-06 MaxDP=9.73D-05 DE= 9.91D-06 OVMax= 4.88D-05

 Cycle   8  Pass 1  IDiag  1:
 E= -237.080794767391     Delta-E=        0.000000001154 Rises=F Damp=F
 DIIS: error= 7.22D-06 at cycle   2 NSaved=   2.
 NSaved= 2 IEnMin= 1 EnMin= -237.080794768545     IErMin= 1 ErrMin= 6.45D-06
 ErrMax= 7.22D-06 EMaxC= 1.00D-01 BMatC= 1.63D-08 BMatP= 1.38D-08
 IDIUse=1 WtCom= 1.00D+00 WtEn= 0.00D+00
 Coeff-Com:  0.522D+00 0.478D+00
 Coeff:      0.522D+00 0.478D+00
 Gap=     0.384 Goal=   None    Shift=    0.000
 RMSDP=1.06D-06 MaxDP=2.80D-05 DE= 1.15D-09 OVMax= 2.68D-05

 Cycle   9  Pass 1  IDiag  1:
 E= -237.080794783163     Delta-E=       -0.000000015772 Rises=F Damp=F
 DIIS: error= 6.42D-07 at cycle   3 NSaved=   3.
 NSaved= 3 IEnMin= 3 EnMin= -237.080794783163     IErMin= 3 ErrMin= 6.42D-07
 ErrMax= 6.42D-07 EMaxC= 1.00D-01 BMatC= 1.49D-10 BMatP= 1.38D-08
 IDIUse=1 WtCom= 1.00D+00 WtEn= 0.00D+00
 Coeff-Com:  0.882D-01 0.127D+00 0.785D+00
 Coeff:      0.882D-01 0.127D+00 0.785D+00
 Gap=     0.384 Goal=   None    Shift=    0.000
 RMSDP=1.44D-07 MaxDP=2.81D-06 DE=-1.58D-08 OVMax= 2.88D-06

 Cycle  10  Pass 1  IDiag  1:
 E= -237.080794783297     Delta-E=       -0.000000000134 Rises=F Damp=F
 DIIS: error= 3.51D-07 at cycle   4 NSaved=   4.
 NSaved= 4 IEnMin= 4 EnMin= -237.080794783297     IErMin= 4 ErrMin= 3.51D-07
 ErrMax= 3.51D-07 EMaxC= 1.00D-01 BMatC= 1.36D-11 BMatP= 1.49D-10
 IDIUse=1 WtCom= 1.00D+00 WtEn= 0.00D+00
 Coeff-Com: -0.444D-02 0.122D-01 0.269D+00 0.723D+00
 Coeff:     -0.444D-02 0.122D-01 0.269D+00 0.723D+00
 Gap=     0.384 Goal=   None    Shift=    0.000
 RMSDP=4.87D-08 MaxDP=7.62D-07 DE=-1.34D-10 OVMax= 9.59D-07

 Cycle  11  Pass 1  IDiag  1:
 E= -237.080794783311     Delta-E=       -0.000000000014 Rises=F Damp=F
 DIIS: error= 7.00D-08 at cycle   5 NSaved=   5.
 NSaved= 5 IEnMin= 5 EnMin= -237.080794783311     IErMin= 5 ErrMin= 7.00D-08
 ErrMax= 7.00D-08 EMaxC= 1.00D-01 BMatC= 1.13D-12 BMatP= 1.36D-11
 IDIUse=1 WtCom= 1.00D+00 WtEn= 0.00D+00
 Coeff-Com: -0.494D-02 0.161D-02 0.998D-01 0.338D+00 0.565D+00
 Coeff:     -0.494D-02 0.161D-02 0.998D-01 0.338D+00 0.565D+00
 Gap=     0.384 Goal=   None    Shift=    0.000
 RMSDP=9.49D-09 MaxDP=2.18D-07 DE=-1.42D-11 OVMax= 2.01D-07

 SCF Done:  E(RB3LYP) =  -237.080794783     A.U. after   11 cycles
             Convg  =    0.9493D-08             -V/T =  2.0105
 KE= 2.346097801582D+02 PE=-1.064130912895D+03 EE= 3.338318080412D+02
 Leave Link  502 at Fri Sep 18 13:24:11 2015, MaxMem=  402653184 cpu:      97.7
 (Enter /share/apps/g09/l601.exe)
 Copying SCF densities to generalized density rwf, IOpCl= 0 IROHF=0.

 **********************************************************************

            Population analysis using the SCF density.

 **********************************************************************

 Orbital symmetries:
       Occupied  (A) (A) (A) (A) (A) (A) (A) (A) (A) (A) (A) (A)
                 (A) (A) (A) (A) (A) (A) (A) (A) (A) (A) (A) (A)
                 (A)
       Virtual   (A) (A) (A) (A) (A) (A) (A) (A) (A) (A) (A) (A)
                 (A) (A) (A) (A) (A) (A) (A) (A) (A) (A) (A) (A)
                 (A) (A) (A) (A) (A) (A) (A) (A) (A) (A) (A) (A)
                 (A) (A) (A) (A) (A) (A) (A) (A) (A) (A) (A) (A)
                 (A) (A) (A) (A) (A) (A) (A) (A) (A) (A) (A) (A)
                 (A) (A) (A) (A) (A) (A) (A) (A) (A) (A) (A) (A)
                 (A) (A) (A) (A) (A) (A) (A) (A) (A) (A) (A) (A)
                 (A) (A) (A) (A) (A) (A) (A) (A) (A)
 The electronic state is 1-A.
 Alpha  occ. eigenvalues --  -10.18249 -10.17571 -10.17534 -10.16913 -10.16811
 Alpha  occ. eigenvalues --  -10.16720  -0.80802  -0.74236  -0.70569  -0.64159
 Alpha  occ. eigenvalues --   -0.60493  -0.53601  -0.45963  -0.44545  -0.43925
 Alpha  occ. eigenvalues --   -0.41529  -0.38320  -0.37744  -0.37422  -0.36057
 Alpha  occ. eigenvalues --   -0.35291  -0.32891  -0.31057  -0.30779  -0.29975
 Alpha virt. eigenvalues --    0.08412   0.11438   0.12240   0.12666   0.14779
 Alpha virt. eigenvalues --    0.15845   0.16073   0.17202   0.17898   0.18432
 Alpha virt. eigenvalues --    0.18716   0.21096   0.22754   0.23237   0.24224
 Alpha virt. eigenvalues --    0.24860   0.26976   0.27680   0.29884   0.49906
 Alpha virt. eigenvalues --    0.51601   0.52078   0.52436   0.54776   0.56883
 Alpha virt. eigenvalues --    0.59142   0.62923   0.64065   0.66571   0.68734
 Alpha virt. eigenvalues --    0.69546   0.74051   0.77069   0.81942   0.83729
 Alpha virt. eigenvalues --    0.86308   0.86752   0.88212   0.88973   0.89839
 Alpha virt. eigenvalues --    0.90387   0.91823   0.93651   0.94675   0.96527
 Alpha virt. eigenvalues --    0.96818   0.98438   1.00014   1.01540   1.02976
 Alpha virt. eigenvalues --    1.04524   1.06136   1.28996   1.30464   1.41918
 Alpha virt. eigenvalues --    1.42494   1.57799   1.60255   1.63655   1.67458
 Alpha virt. eigenvalues --    1.71366   1.74750   1.78860   1.83805   1.89220
 Alpha virt. eigenvalues --    1.95271   1.96691   1.98105   2.00347   2.03877
 Alpha virt. eigenvalues --    2.07974   2.12073   2.13800   2.16498   2.28329
 Alpha virt. eigenvalues --    2.29656   2.31651   2.33600   2.34456   2.36349
 Alpha virt. eigenvalues --    2.42788   2.48995   2.54648   2.61930   2.67548
 Alpha virt. eigenvalues --    2.74378   2.79469   4.11878   4.22030   4.27565
 Alpha virt. eigenvalues --    4.41589   4.44067   4.60034
          Condensed to atoms (all electrons):
              1          2          3          4          5          6
     1  C    5.073444   0.377652   0.377259   0.370930   0.371127  -0.038466
     2  H    0.377652   0.578104  -0.033126  -0.031614  -0.034558   0.005155
     3  H    0.377259  -0.033126   0.575482  -0.030959  -0.034898  -0.004460
     4  H    0.370930  -0.031614  -0.030959   0.581790  -0.028828  -0.002543
     5  C    0.371127  -0.034558  -0.034898  -0.028828   5.001069   0.371063
     6  H   -0.038466   0.005155  -0.004460  -0.002543   0.371063   0.611538
     7  H   -0.038348  -0.004450   0.005203  -0.003056   0.371977  -0.039664
     8  C   -0.040749  -0.005327  -0.005195   0.004332   0.385289  -0.035112
     9  H   -0.006191   0.006186  -0.000196   0.000104  -0.050138   0.005895
    10  C    0.004230   0.000014   0.000103  -0.000157  -0.043595  -0.004344
    11  H   -0.000158  -0.000011   0.000004   0.000003   0.005513  -0.000153
    12  H    0.000002  -0.000004   0.000002  -0.000006  -0.006168  -0.000112
    13  C    0.000230   0.000005  -0.000016   0.000005  -0.007574   0.002590
    14  H   -0.000078  -0.000001   0.000006   0.000008   0.005051   0.000782
    15  H   -0.000002   0.000000   0.000000   0.000000   0.000077  -0.000004
    16  H   -0.000023   0.000000   0.000001   0.000000  -0.000734   0.000220
    17  C   -0.004225  -0.000180   0.001819   0.000022  -0.051102  -0.008843
    18  H    0.001354   0.000201   0.004356  -0.000135  -0.004120  -0.000045
    19  H   -0.000050   0.000037   0.000171  -0.000010  -0.006658   0.005756
    20  H    0.000023  -0.000016  -0.000164   0.000003   0.005153   0.000059
              7          8          9         10         11         12
     1  C   -0.038348  -0.040749  -0.006191   0.004230  -0.000158   0.000002
     2  H   -0.004450  -0.005327   0.006186   0.000014  -0.000011  -0.000004
     3  H    0.005203  -0.005195  -0.000196   0.000103   0.000004   0.000002
     4  H   -0.003056   0.004332   0.000104  -0.000157   0.000003  -0.000006
     5  C    0.371977   0.385289  -0.050138  -0.043595   0.005513  -0.006168
     6  H   -0.039664  -0.035112   0.005895  -0.004344  -0.000153  -0.000112
     7  H    0.616352  -0.040273  -0.001442  -0.004062   0.000097   0.005628
     8  C   -0.040273   4.868728   0.376363   0.384293  -0.035079  -0.034494
     9  H   -0.001442   0.376363   0.649618  -0.042277  -0.003339  -0.003735
    10  C   -0.004062   0.384293  -0.042277   5.000755   0.368600   0.369830
    11  H    0.000097  -0.035079  -0.003339   0.368600   0.622736  -0.037614
    12  H    0.005628  -0.034494  -0.003735   0.369830  -0.037614   0.618220
    13  C   -0.001294  -0.043761   0.005347   0.373517  -0.040740  -0.040337
    14  H    0.001282  -0.006061   0.000020  -0.035461   0.005321  -0.004635
    15  H   -0.000066   0.004517  -0.000138  -0.028111  -0.003670  -0.002761
    16  H    0.000141  -0.005576   0.000028  -0.036985  -0.003838   0.005331
    17  C    0.005577   0.376459  -0.047122  -0.049974  -0.005917   0.005738
    18  H   -0.000033  -0.030946  -0.003776   0.005082  -0.000056  -0.000175
    19  H    0.000048  -0.032999   0.005634  -0.006745  -0.000132  -0.000024
    20  H   -0.000183  -0.030056  -0.003061  -0.003988   0.004952  -0.000013
             13         14         15         16         17         18
     1  C    0.000230  -0.000078  -0.000002  -0.000023  -0.004225   0.001354
     2  H    0.000005  -0.000001   0.000000   0.000000  -0.000180   0.000201
     3  H   -0.000016   0.000006   0.000000   0.000001   0.001819   0.004356
     4  H    0.000005   0.000008   0.000000   0.000000   0.000022  -0.000135
     5  C   -0.007574   0.005051   0.000077  -0.000734  -0.051102  -0.004120
     6  H    0.002590   0.000782  -0.000004   0.000220  -0.008843  -0.000045
     7  H   -0.001294   0.001282  -0.000066   0.000141   0.005577  -0.000033
     8  C   -0.043761  -0.006061   0.004517  -0.005576   0.376459  -0.030946
     9  H    0.005347   0.000020  -0.000138   0.000028  -0.047122  -0.003776
    10  C    0.373517  -0.035461  -0.028111  -0.036985  -0.049974   0.005082
    11  H   -0.040740   0.005321  -0.003670  -0.003838  -0.005917  -0.000056
    12  H   -0.040337  -0.004635  -0.002761   0.005331   0.005738  -0.000175
    13  C    5.077252   0.378371   0.373003   0.378589  -0.008092   0.000141
    14  H    0.378371   0.573226  -0.031274  -0.033148  -0.000164  -0.000022
    15  H    0.373003  -0.031274   0.578357  -0.031005   0.000095   0.000000
    16  H    0.378589  -0.033148  -0.031005   0.575277   0.003485  -0.000145
    17  C   -0.008092  -0.000164   0.000095   0.003485   5.121235   0.370555
    18  H    0.000141  -0.000022   0.000000  -0.000145   0.370555   0.576562
    19  H    0.002530   0.000193  -0.000101   0.003190   0.373137  -0.031699
    20  H   -0.000285   0.000048  -0.000035   0.000280   0.369488  -0.029968
             19         20
     1  C   -0.000050   0.000023
     2  H    0.000037  -0.000016
     3  H    0.000171  -0.000164
     4  H   -0.000010   0.000003
     5  C   -0.006658   0.005153
     6  H    0.005756   0.000059
     7  H    0.000048  -0.000183
     8  C   -0.032999  -0.030056
     9  H    0.005634  -0.003061
    10  C   -0.006745  -0.003988
    11  H   -0.000132   0.004952
    12  H   -0.000024  -0.000013
    13  C    0.002530  -0.000285
    14  H    0.000193   0.000048
    15  H   -0.000101  -0.000035
    16  H    0.003190   0.000280
    17  C    0.373137   0.369488
    18  H   -0.031699  -0.029968
    19  H    0.577669  -0.032560
    20  H   -0.032560   0.580860
 Mulliken atomic charges:
              1
     1  C   -0.447960
     2  H    0.141932
     3  H    0.144609
     4  H    0.140112
     5  C   -0.247946
     6  H    0.130689
     7  H    0.126567
     8  C   -0.054353
     9  H    0.112220
    10  C   -0.250726
    11  H    0.123482
    12  H    0.125328
    13  C   -0.449479
    14  H    0.146535
    15  H    0.141119
    16  H    0.144912
    17  C   -0.451989
    18  H    0.142869
    19  H    0.142614
    20  H    0.139463
 Sum of Mulliken atomic charges =   0.00000
 Mulliken charges with hydrogens summed into heavy atoms:
              1
     1  C   -0.021307
     5  C    0.009310
     8  C    0.057867
    10  C   -0.001915
    13  C   -0.016913
    17  C   -0.027042
 Sum of Mulliken charges with hydrogens summed into heavy atoms =   0.00000
 Electronic spatial extent (au):  <R**2>=            792.2815
 Charge=              0.0000 electrons
 Dipole moment (field-independent basis, Debye):
    X=              0.0125    Y=             -0.0169    Z=              0.0141  Tot=              0.0253
 Quadrupole moment (field-independent basis, Debye-Ang):
   XX=            -42.0116   YY=            -41.5270   ZZ=            -41.4079
   XY=             -0.1190   XZ=             -0.0920   YZ=              0.0093
 Traceless Quadrupole moment (field-independent basis, Debye-Ang):
   XX=             -0.3628   YY=              0.1218   ZZ=              0.2409
   XY=             -0.1190   XZ=             -0.0920   YZ=              0.0093
 Octapole moment (field-independent basis, Debye-Ang**2):
  XXX=             -1.5545  YYY=             -1.1011  ZZZ=             -0.0003  XYY=              0.1219
  XXY=              0.5252  XXZ=              0.5204  XZZ=              0.6752  YZZ=             -0.0051
  YYZ=              0.4829  XYZ=              0.1581
 Hexadecapole moment (field-independent basis, Debye-Ang**3):
 XXXX=           -688.9139 YYYY=           -271.6161 ZZZZ=           -143.6526 XXXY=              0.9976
 XXXZ=             -3.2186 YYYX=             -1.2680 YYYZ=              1.6248 ZZZX=              1.7131
 ZZZY=             -0.3875 XXYY=           -156.1537 XXZZ=           -138.5327 YYZZ=            -68.6303
 XXYZ=             -0.2852 YYXZ=             -2.0411 ZZXY=             -1.5556
 N-N= 2.586085299118D+02 E-N=-1.064130911957D+03  KE= 2.346097801582D+02
 No NMR shielding tensors so no spin-rotation constants.
 Leave Link  601 at Fri Sep 18 13:24:11 2015, MaxMem=  402653184 cpu:       0.3
 (Enter /share/apps/g09/l701.exe)
 Compute integral first derivatives.
 ... and contract with generalized density number  0.
 Leave Link  701 at Fri Sep 18 13:24:11 2015, MaxMem=  402653184 cpu:       0.3
 (Enter /share/apps/g09/l702.exe)
 L702 exits ... SP integral derivatives will be done elsewhere.
 Leave Link  702 at Fri Sep 18 13:24:11 2015, MaxMem=  402653184 cpu:       0.0
 (Enter /share/apps/g09/l703.exe)
 Compute integral first derivatives, UseDBF=F ICtDFT=           0.
 Integral derivatives from FoFDir, PRISM(SPDF).
 Calling FoFJK, ICntrl=      2127 FMM=F ISym2X=0 I1Cent= 0 IOpClX= 0 NMat=1 NMatS=1 NMatT=0.
 FoFCou: FMM=F IPFlag=           0 FMFlag=      100000 FMFlg1=         800
         NFxFlg=           0 DoJE=F BraDBF=F KetDBF=F FulRan=T
         Omega=  0.000000  0.000000  1.000000  0.000000  0.000000 ICntrl=    2127 IOpCl=  0
         NMat0=    1 NMatS0=    1 NMatT0=    0 NMatD0=    1 NMtDS0=    0 NMtDT0=    0
         I1Cent=           0 NGrid=           0.
 Symmetry not used in FoFCou.
 Leave Link  703 at Fri Sep 18 13:24:24 2015, MaxMem=  402653184 cpu:      25.5
 (Enter /share/apps/g09/l716.exe)
 Dipole        = 4.91370022D-03-6.65915077D-03 5.53516124D-03
 ***** Axes restored to original set *****
 -------------------------------------------------------------------
 Center     Atomic                   Forces (Hartrees/Bohr)
 Number     Number              X              Y              Z
 -------------------------------------------------------------------
      1        6           0.003851551   -0.001469119   -0.003207889
      2        1          -0.000759764   -0.000216260    0.001067565
      3        1           0.000519514   -0.000339155   -0.000164583
      4        1           0.000938900   -0.000063196   -0.000323095
      5        6          -0.001407508   -0.002846033    0.001057136
      6        1           0.001547620    0.000889295    0.005048002
      7        1           0.001405560    0.004789506   -0.001013570
      8        6          -0.001393544   -0.002033164    0.007008298
      9        1          -0.004016598   -0.002690726   -0.010328814
     10        6          -0.001315774    0.001701207    0.009067343
     11        1           0.002674420   -0.003434808   -0.002843733
     12        1           0.000290550    0.003858543   -0.003672560
     13        6          -0.002640910   -0.000908931   -0.002782743
     14        1          -0.000305915   -0.000450667    0.000080470
     15        1          -0.000254913   -0.000109080    0.000094067
     16        1          -0.001195292   -0.000542393    0.000112359
     17        6           0.002412145    0.002010185    0.000439720
     18        1          -0.000284774    0.001113240   -0.000190543
     19        1           0.000351827   -0.000272432   -0.000541052
     20        1          -0.000417096    0.001013989    0.001093624
 -------------------------------------------------------------------
 Cartesian Forces:  Max     0.010328814 RMS     0.002756248
 Leave Link  716 at Fri Sep 18 13:24:24 2015, MaxMem=  402653184 cpu:       0.0
 (Enter /share/apps/g09/l103.exe)

 GradGradGradGradGradGradGradGradGradGradGradGradGradGradGradGradGradGrad
 Berny optimization.
 Internal  Forces:  Max     0.011382971 RMS     0.002178170
 Search for a local minimum.
 Step number   1 out of a maximum of  110
 All quantities printed in internal units (Hartrees-Bohrs-Radians)
 RMS Force = .21782D-02 SwitMx=.10000D-02 MixMth= 1
 Mixed Optimization -- RFO/linear search
 Second derivative matrix not updated -- first step.
     Eigenvalues ---    0.00230   0.00230   0.00325   0.00407   0.00416
     Eigenvalues ---    0.03299   0.03354   0.03469   0.04720   0.04745
     Eigenvalues ---    0.04778   0.04815   0.05408   0.05442   0.05444
     Eigenvalues ---    0.05451   0.05498   0.05508   0.08330   0.08657
     Eigenvalues ---    0.12206   0.12441   0.16000   0.16000   0.16000
     Eigenvalues ---    0.16000   0.16000   0.16000   0.16000   0.16000
     Eigenvalues ---    0.16000   0.16907   0.16961   0.21870   0.21914
     Eigenvalues ---    0.28030   0.28213   0.29117   0.29691   0.29754
     Eigenvalues ---    0.31535   0.32802   0.32832   0.32865   0.32939
     Eigenvalues ---    0.34113   0.34121   0.34168   0.34181   0.34182
     Eigenvalues ---    0.34184   0.34196   0.34220   0.342821000.00000
     Eigenvalues --- 1000.000001000.000001000.000001000.000001000.00000
     Eigenvalues --- 1000.000001000.000001000.000001000.000001000.00000
     Eigenvalues --- 1000.000001000.000001000.000001000.000001000.00000
     Eigenvalues --- 1000.000001000.000001000.000001000.000001000.00000
     Eigenvalues --- 1000.000001000.000001000.000001000.000001000.00000
     Eigenvalues --- 1000.000001000.000001000.000001000.000001000.00000
     Eigenvalues --- 1000.000001000.000001000.000001000.000001000.00000
     Eigenvalues --- 1000.000001000.000001000.000001000.000001000.00000
     Eigenvalues --- 1000.000001000.000001000.000001000.000001000.00000
 RFO step:  Lambda=-2.37805134D-03 EMin= 2.30000000D-03
 Linear search not attempted -- first point.
 Iteration  1 RMS(Cart)=  0.04421118 RMS(Int)=  0.00060336
 Iteration  2 RMS(Cart)=  0.00082377 RMS(Int)=  0.00016025
 Iteration  3 RMS(Cart)=  0.00000033 RMS(Int)=  0.00016025
 Variable       Old X    -DE/DX   Delta X   Delta X   Delta X     New X
                                 (Linear)    (Quad)   (Total)
    R1        2.07048   0.00081   0.00000   0.00235   0.00235   2.07283
    R2        2.07126  -0.00011   0.00000  -0.00031  -0.00031   2.07094
    R3        2.07024   0.00071   0.00000   0.00207   0.00207   2.07231
    R4        2.88583   0.00377   0.00000   0.01261   0.01261   2.89844
    R5        2.09159  -0.00531   0.00000  -0.01602  -0.01602   2.07557
    R6        2.09289  -0.00499   0.00000  -0.01507  -0.01507   2.07781
    R7        2.91674   0.00189   0.00000   0.00664   0.00664   2.92339
    R8        2.11703  -0.01138   0.00000  -0.03583  -0.03583   2.08120
    R9        2.92074   0.00251   0.00000   0.00888   0.00888   2.92962
   R10        2.89759   0.00288   0.00000   0.00981   0.00981   2.90740
   R11        2.09400  -0.00519   0.00000  -0.01570  -0.01570   2.07830
   R12        2.09347  -0.00528   0.00000  -0.01597  -0.01597   2.07750
   R13        2.88456   0.00474   0.00000   0.01581   0.01581   2.90037
   R14        2.07021   0.00016   0.00000   0.00046   0.00046   2.07067
   R15        2.07025   0.00029   0.00000   0.00084   0.00084   2.07110
   R16        2.07139  -0.00041   0.00000  -0.00118  -0.00118   2.07021
   R17        2.06961   0.00018   0.00000   0.00052   0.00052   2.07013
   R18        2.07001   0.00041   0.00000   0.00119   0.00119   2.07119
   R19        2.06856   0.00143   0.00000   0.00414   0.00414   2.07270
    A1        1.87431   0.00044   0.00000   0.00193   0.00195   1.87626
    A2        1.87582   0.00028   0.00000   0.00086   0.00088   1.87670
    A3        1.94891  -0.00179   0.00000  -0.01190  -0.01189   1.93703
    A4        1.87484  -0.00083   0.00000  -0.00349  -0.00352   1.87132
    A5        1.94704   0.00083   0.00000   0.00555   0.00554   1.95258
    A6        1.93920   0.00107   0.00000   0.00702   0.00701   1.94621
    A7        1.91566  -0.00239   0.00000  -0.01037  -0.01041   1.90526
    A8        1.90853  -0.00221   0.00000  -0.01010  -0.01009   1.89844
    A9        1.96406   0.00700   0.00000   0.03292   0.03296   1.99702
   A10        1.84493   0.00153   0.00000   0.00262   0.00251   1.84743
   A11        1.91609  -0.00204   0.00000  -0.00713  -0.00713   1.90896
   A12        1.91075  -0.00225   0.00000  -0.00997  -0.00995   1.90081
   A13        1.88473  -0.00109   0.00000  -0.02585  -0.02557   1.85916
   A14        1.94093   0.00134   0.00000   0.02349   0.02278   1.96371
   A15        1.94455   0.00039   0.00000   0.01742   0.01656   1.96112
   A16        1.86543  -0.00077   0.00000  -0.01938  -0.01905   1.84638
   A17        1.88171  -0.00047   0.00000  -0.01957  -0.01933   1.86238
   A18        1.94276   0.00043   0.00000   0.01915   0.01834   1.96111
   A19        1.89775  -0.00182   0.00000  -0.00287  -0.00300   1.89474
   A20        1.90232  -0.00251   0.00000  -0.01499  -0.01490   1.88743
   A21        1.99881   0.00684   0.00000   0.03261   0.03261   2.03142
   A22        1.84350   0.00131   0.00000  -0.00019  -0.00029   1.84321
   A23        1.90651  -0.00210   0.00000  -0.00505  -0.00522   1.90130
   A24        1.90855  -0.00212   0.00000  -0.01197  -0.01186   1.89669
   A25        1.94988   0.00014   0.00000   0.00203   0.00199   1.95188
   A26        1.93861  -0.00051   0.00000  -0.00612  -0.00611   1.93250
   A27        1.94569   0.00130   0.00000   0.00977   0.00975   1.95544
   A28        1.87597  -0.00017   0.00000  -0.00433  -0.00434   1.87163
   A29        1.87357  -0.00016   0.00000   0.00450   0.00444   1.87801
   A30        1.87648  -0.00066   0.00000  -0.00630  -0.00628   1.87020
   A31        1.94010   0.00152   0.00000   0.00900   0.00900   1.94909
   A32        1.94806  -0.00026   0.00000  -0.00064  -0.00065   1.94741
   A33        1.94381  -0.00056   0.00000  -0.00401  -0.00400   1.93980
   A34        1.87387  -0.00055   0.00000  -0.00228  -0.00229   1.87158
   A35        1.87927  -0.00073   0.00000  -0.00632  -0.00631   1.87296
   A36        1.87526   0.00052   0.00000   0.00395   0.00395   1.87921
    D1       -3.09789   0.00039   0.00000  -0.00001  -0.00004  -3.09794
    D2       -1.08147  -0.00037   0.00000  -0.00839  -0.00836  -1.08983
    D3        1.04595  -0.00010   0.00000  -0.00613  -0.00612   1.03983
    D4        1.08776   0.00049   0.00000   0.00188   0.00186   1.08963
    D5        3.10419  -0.00026   0.00000  -0.00650  -0.00645   3.09774
    D6       -1.05158   0.00001   0.00000  -0.00423  -0.00422  -1.05579
    D7       -1.00382   0.00026   0.00000  -0.00217  -0.00222  -1.00603
    D8        1.01261  -0.00049   0.00000  -0.01055  -0.01053   1.00208
    D9        3.14003  -0.00022   0.00000  -0.00828  -0.00830   3.13173
   D10       -0.77972  -0.00006   0.00000  -0.02524  -0.02524  -0.80496
   D11       -2.82116   0.00077   0.00000   0.00056   0.00071  -2.82045
   D12        1.28358  -0.00109   0.00000  -0.05503  -0.05514   1.22844
   D13       -2.91882  -0.00036   0.00000  -0.02954  -0.02956  -2.94838
   D14        1.32292   0.00047   0.00000  -0.00375  -0.00360   1.31932
   D15       -0.85552  -0.00138   0.00000  -0.05934  -0.05946  -0.91498
   D16        1.34644   0.00023   0.00000  -0.02300  -0.02304   1.32340
   D17       -0.69500   0.00106   0.00000   0.00279   0.00292  -0.69209
   D18       -2.87345  -0.00079   0.00000  -0.05280  -0.05294  -2.92638
   D19        3.09334  -0.00138   0.00000  -0.02766  -0.02782   3.06552
   D20        1.09183  -0.00062   0.00000  -0.01793  -0.01812   1.07371
   D21       -1.05207  -0.00075   0.00000  -0.01380  -0.01390  -1.06598
   D22        1.04015  -0.00034   0.00000   0.00220   0.00219   1.04234
   D23       -0.96136   0.00042   0.00000   0.01192   0.01188  -0.94947
   D24       -3.10526   0.00029   0.00000   0.01605   0.01611  -3.08916
   D25       -1.01040   0.00044   0.00000   0.02690   0.02703  -0.98337
   D26       -3.01191   0.00121   0.00000   0.03662   0.03673  -2.97518
   D27        1.12738   0.00108   0.00000   0.04075   0.04095   1.16833
   D28       -1.03806   0.00102   0.00000   0.01138   0.01146  -1.02660
   D29        1.05357   0.00118   0.00000   0.01416   0.01424   1.06782
   D30       -3.13368   0.00128   0.00000   0.01601   0.01609  -3.11758
   D31        1.02705  -0.00038   0.00000  -0.02219  -0.02219   1.00487
   D32        3.11869  -0.00022   0.00000  -0.01941  -0.01940   3.09929
   D33       -1.06856  -0.00011   0.00000  -0.01756  -0.01755  -1.08611
   D34        3.06771  -0.00134   0.00000  -0.04670  -0.04679   3.02091
   D35       -1.12384  -0.00119   0.00000  -0.04392  -0.04401  -1.16785
   D36        0.97209  -0.00108   0.00000  -0.04207  -0.04216   0.92993
   D37        1.08874   0.00003   0.00000  -0.01457  -0.01458   1.07417
   D38       -3.09993  -0.00044   0.00000  -0.02287  -0.02289  -3.12282
   D39       -1.00758  -0.00076   0.00000  -0.02843  -0.02848  -1.03606
   D40       -3.06143   0.00085   0.00000   0.00069   0.00070  -3.06073
   D41       -0.96692   0.00038   0.00000  -0.00761  -0.00761  -0.97453
   D42        1.12543   0.00006   0.00000  -0.01318  -0.01320   1.11223
   D43       -1.05180   0.00009   0.00000  -0.00891  -0.00887  -1.06067
   D44        1.04272  -0.00038   0.00000  -0.01722  -0.01718   1.02554
   D45        3.13506  -0.00070   0.00000  -0.02278  -0.02277   3.11229
         Item               Value     Threshold  Converged?
 Maximum Force            0.011383     0.000015     NO 
 RMS     Force            0.002178     0.000010     NO 
 Maximum Displacement     0.193720     0.000060     NO 
 RMS     Displacement     0.044122     0.000040     NO 
 Predicted change in Energy=-1.246834D-03
 GradGradGradGradGradGradGradGradGradGradGradGradGradGradGradGradGradGrad

 Leave Link  103 at Fri Sep 18 13:24:24 2015, MaxMem=  402653184 cpu:       0.1
 (Enter /share/apps/g09/l202.exe)
                          Input orientation:                          
 ---------------------------------------------------------------------
 Center     Atomic      Atomic             Coordinates (Angstroms)
 Number     Number       Type             X           Y           Z
 ---------------------------------------------------------------------
      1          6           0        2.465896   -0.436579   -0.049982
      2          1           0        2.758795   -0.391943    1.006141
      3          1           0        2.741330    0.519640   -0.509077
      4          1           0        3.073841   -1.213596   -0.528748
      5          6           0        0.966806   -0.728057   -0.192363
      6          1           0        0.715216   -0.810635   -1.258313
      7          1           0        0.755302   -1.715122    0.243455
      8          6           0        0.045190    0.321480    0.472673
      9          1           0        0.461859    0.514741    1.473651
     10          6           0       -1.390238   -0.214124    0.709464
     11          1           0       -1.964212    0.550910    1.252426
     12          1           0       -1.326446   -1.074808    1.390463
     13          6           0       -2.176735   -0.633416   -0.540041
     14          1           0       -1.685421   -1.454195   -1.074459
     15          1           0       -3.181160   -0.977834   -0.268617
     16          1           0       -2.299105    0.195284   -1.246028
     17          6           0        0.052404    1.665315   -0.276407
     18          1           0        1.059569    2.092740   -0.330916
     19          1           0       -0.309800    1.555394   -1.305000
     20          1           0       -0.587792    2.401261    0.225150
 ---------------------------------------------------------------------
                    Distance matrix (angstroms):
                    1          2          3          4          5
     1  C    0.000000
     2  H    1.096895   0.000000
     3  H    1.095895   1.768382   0.000000
     4  H    1.096617   1.769251   1.764953   0.000000
     5  C    1.533787   2.181883   2.192258   2.188265   0.000000
     6  H    2.159829   3.078842   2.536952   2.501551   1.098346
     7  H    2.155669   2.519221   3.082982   2.494684   1.099531
     8  C    2.589910   2.856083   2.876156   3.540060   1.546989
     9  H    2.691213   2.513276   3.021129   3.717418   2.138953
    10  C    3.936497   4.163425   4.369566   4.739210   2.575475
    11  H    4.721997   4.822492   5.024540   5.627437   3.509137
    12  H    4.106589   4.159712   4.764171   4.802620   2.807949
    13  C    4.672571   5.177687   5.051521   5.282545   3.164124
    14  H    4.395284   5.020790   4.879734   4.796484   2.887849
    15  H    5.677147   6.103388   6.113603   6.264846   4.156178
    16  H    4.953283   5.567715   5.104341   5.600713   3.553722
    17  C    3.208452   3.633427   2.932069   4.181015   2.563479
    18  H    2.907599   3.293743   2.309698   3.876633   2.825721
    19  H    3.639713   4.306945   3.318987   4.440597   2.842856
    20  H    4.177803   4.428496   3.893923   5.200299   3.519051
                    6          7          8          9         10
     6  H    0.000000
     7  H    1.753571   0.000000
     8  C    2.174150   2.168997   0.000000
     9  H    3.047037   2.563548   1.101326   0.000000
    10  C    2.942941   2.659606   1.550289   2.132015   0.000000
    11  H    3.916242   3.680854   2.167568   2.436405   1.099787
    12  H    3.354726   2.461566   2.161792   2.394081   1.099367
    13  C    2.985079   3.221924   2.621901   3.512178   1.534811
    14  H    2.492193   2.786056   2.922611   3.870450   2.192554
    15  H    4.023580   4.037517   3.556271   4.305214   2.178830
    16  H    3.177759   3.898412   2.909567   3.888654   2.194904
    17  C    2.744774   3.491659   1.538528   2.134052   2.566213
    18  H    3.067284   3.862939   2.193646   2.470587   3.522153
    19  H    2.578940   3.772060   2.192871   3.065831   2.890779
    20  H    3.770247   4.329994   2.188018   2.493888   2.778258
                   11         12         13         14         15
    11  H    0.000000
    12  H    1.751788   0.000000
    13  C    2.158873   2.155148   0.000000
    14  H    3.084245   2.519651   1.095751   0.000000
    15  H    2.476205   2.490365   1.095976   1.764522   0.000000
    16  H    2.545760   3.083875   1.095507   1.768283   1.763393
    17  C    2.765136   3.491126   3.212901   3.658998   4.176390
    18  H    3.745326   4.323144   4.236664   4.546270   5.236037
    19  H    3.207257   3.900905   2.976827   3.317093   3.966868
    20  H    2.524605   3.739869   3.509918   4.214061   4.288082
                   16         17         18         19         20
    16  H    0.000000
    17  C    2.937814   0.000000
    18  H    3.964652   1.095465   0.000000
    19  H    2.410542   1.096028   1.764299   0.000000
    20  H    3.155835   1.096826   1.765841   1.770347   0.000000
 Stoichiometry    C6H14
 Framework group  C1[X(C6H14)]
 Deg. of freedom    54
 Full point group                 C1      NOp   1
 Largest Abelian subgroup         C1      NOp   1
 Largest concise Abelian subgroup C1      NOp   1
                         Standard orientation:                         
 ---------------------------------------------------------------------
 Center     Atomic      Atomic             Coordinates (Angstroms)
 Number     Number       Type             X           Y           Z
 ---------------------------------------------------------------------
      1          6           0        2.462120   -0.458943   -0.046887
      2          1           0        2.757160   -0.408963    1.008401
      3          1           0        2.745007    0.491417   -0.513552
      4          1           0        3.062553   -1.244720   -0.520813
      5          6           0        0.960340   -0.738542   -0.184675
      6          1           0        0.706266   -0.826891   -1.249571
      7          1           0        0.741078   -1.720471    0.258843
      8          6           0        0.048908    0.323829    0.473987
      9          1           0        0.468899    0.520946    1.472822
     10          6           0       -1.390679   -0.197602    0.717081
     11          1           0       -1.957138    0.576377    1.255238
     12          1           0       -1.333159   -1.053704    1.404386
     13          6           0       -2.182846   -0.619401   -0.527990
     14          1           0       -1.699510   -1.448345   -1.057054
     15          1           0       -3.189743   -0.953114   -0.252387
     16          1           0       -2.299260    0.205038   -1.239949
     17          6           0        0.066436    1.661931   -0.285118
     18          1           0        1.077150    2.080240   -0.344438
     19          1           0       -0.298422    1.547473   -1.312277
     20          1           0       -0.566561    2.407086    0.211959
 ---------------------------------------------------------------------
 Rotational constants (GHZ):      5.1139953      2.0779192      1.7572189
 Leave Link  202 at Fri Sep 18 13:24:24 2015, MaxMem=  402653184 cpu:       0.0
 (Enter /share/apps/g09/l301.exe)
 Standard basis: 6-31G(d) (6D, 7F)
 Ernie: Thresh=  0.10000D-02 Tol=  0.10000D-05 Strict=F.
 There are   118 symmetry adapted basis functions of A   symmetry.
 Integral buffers will be    131072 words long.
 Raffenetti 2 integral format.
 Two-electron integral symmetry is turned on.
   118 basis functions,   224 primitive gaussians,   118 cartesian basis functions
    25 alpha electrons       25 beta electrons
       nuclear repulsion energy       256.8538117166 Hartrees.
 IExCor=  402 DFT=T Ex+Corr=B3LYP ExCW=0 ScaHFX=  0.200000
 ScaDFX=  0.800000  0.720000  1.000000  0.810000 ScalE2=  1.000000  1.000000
 IRadAn=      5 IRanWt=     -1 IRanGd=            0 ICorTp=0
 NAtoms=   20 NActive=   20 NUniq=   20 SFac= 7.50D-01 NAtFMM=   80 NAOKFM=F Big=F
 Leave Link  301 at Fri Sep 18 13:24:24 2015, MaxMem=  402653184 cpu:       0.1
 (Enter /share/apps/g09/l302.exe)
 NPDir=0 NMtPBC=     1 NCelOv=     1 NCel=       1 NClECP=     1 NCelD=      1
         NCelK=      1 NCelE2=     1 NClLst=     1 CellRange=     0.0.
 One-electron integrals computed using PRISM.
 NBasis=   118 RedAO= T  NBF=   118
 NBsUse=   118 1.00D-06 NBFU=   118
 Precomputing XC quadrature grid using
 IXCGrd= 2 IRadAn=           5 IRanWt=          -1 IRanGd=           0 AccXCQ= 1.00D-10.
 NRdTot=    1644 NPtTot=      440330 NUsed=      452111 NTot=      452143
 NSgBfM=   118   118   118   118   118 NAtAll=    20    20.
 Leave Link  302 at Fri Sep 18 13:24:25 2015, MaxMem=  402653184 cpu:       1.2
 (Enter /share/apps/g09/l303.exe)
 DipDrv:  MaxL=1.
 Leave Link  303 at Fri Sep 18 13:24:25 2015, MaxMem=  402653184 cpu:       0.0
 (Enter /share/apps/g09/l401.exe)
 Initial guess read from the read-write file.
 B after Tr=     0.000000    0.000000    0.000000
         Rot=    1.000000    0.000000    0.000000    0.000000 Ang=   0.00 deg.
 Guess basis will be translated and rotated to current coordinates.
 Initial guess orbital symmetries:
       Occupied  (A) (A) (A) (A) (A) (A) (A) (A) (A) (A) (A) (A)
                 (A) (A) (A) (A) (A) (A) (A) (A) (A) (A) (A) (A)
                 (A)
       Virtual   (A) (A) (A) (A) (A) (A) (A) (A) (A) (A) (A) (A)
                 (A) (A) (A) (A) (A) (A) (A) (A) (A) (A) (A) (A)
                 (A) (A) (A) (A) (A) (A) (A) (A) (A) (A) (A) (A)
                 (A) (A) (A) (A) (A) (A) (A) (A) (A) (A) (A) (A)
                 (A) (A) (A) (A) (A) (A) (A) (A) (A) (A) (A) (A)
                 (A) (A) (A) (A) (A) (A) (A) (A) (A) (A) (A) (A)
                 (A) (A) (A) (A) (A) (A) (A) (A) (A) (A) (A) (A)
                 (A) (A) (A) (A) (A) (A) (A) (A) (A)
 The electronic state of the initial guess is 1-A.
 Generating alternative initial guess.
 Harris functional with IExCor=  402 diagonalized for initial guess.
 ExpMin= 1.61D-01 ExpMax= 3.05D+03 ExpMxC= 4.57D+02 IAcc=3 IRadAn=         5 AccDes= 0.00D+00
 HarFok:  IExCor=  402 AccDes= 0.00D+00 IRadAn=         5 IDoV= 1
 ScaDFX=  1.000000  1.000000  1.000000  1.000000
 FoFCou: FMM=F IPFlag=           0 FMFlag=      100000 FMFlg1=           0
         NFxFlg=           0 DoJE=T BraDBF=F KetDBF=T FulRan=T
         Omega=  0.000000  0.000000  1.000000  0.000000  0.000000 ICntrl=     500 IOpCl=  0
         NMat0=    1 NMatS0=    1 NMatT0=    0 NMatD0=    1 NMtDS0=    0 NMtDT0=    0
         I1Cent=           4 NGrid=           0.
 Petite list used in FoFCou.
 Harris En= -237.180284707611    
 Leave Link  401 at Fri Sep 18 13:24:30 2015, MaxMem=  402653184 cpu:      10.6
 (Enter /share/apps/g09/l502.exe)
 Closed shell SCF:
 Requested convergence on RMS density matrix=1.00D-08 within 128 cycles.
 Requested convergence on MAX density matrix=1.00D-06.
 Requested convergence on             energy=1.00D-06.
 No special actions if energy rises.
 Using DIIS extrapolation, IDIIS=  1040.
 Integral symmetry usage will be decided dynamically.
       451918 words used for storage of precomputed grid.
 Keep R1 ints in memory in canonical form, NReq=26105973.
 IEnd=      513462 IEndB=      513462 NGot=   402653184 MDV=   377519646
 LenX=   377519646 LenY=   377505281
 Symmetry not used in FoFDir.
 MinBra= 0 MaxBra= 2 Meth= 1.
 IRaf=       0 NMat=   1 IRICut=       1 DoRegI=T DoRafI=F ISym2E= 0 JSym2E=0.
 Integral accuracy reduced to 1.0D-05 until final iterations.

 Cycle   1  Pass 0  IDiag  1:
 E= -237.079835914718    
 DIIS: error= 1.74D-03 at cycle   1 NSaved=   1.
 NSaved= 1 IEnMin= 1 EnMin= -237.079835914718     IErMin= 1 ErrMin= 1.74D-03
 ErrMax= 1.74D-03 EMaxC= 1.00D-01 BMatC= 9.69D-04 BMatP= 9.69D-04
 IDIUse=3 WtCom= 9.83D-01 WtEn= 1.74D-02
 Coeff-Com:  0.100D+01
 Coeff-En:   0.100D+01
 Coeff:      0.100D+01
 Gap=     0.386 Goal=   None    Shift=    0.000
 GapD=    0.386 DampG=1.000 DampE=1.000 DampFc=1.0000 IDamp=-1.
 RMSDP=3.92D-04 MaxDP=5.40D-03              OVMax= 1.06D-02

 Cycle   2  Pass 0  IDiag  1:
 E= -237.081681664013     Delta-E=       -0.001845749295 Rises=F Damp=F
 DIIS: error= 4.83D-04 at cycle   2 NSaved=   2.
 NSaved= 2 IEnMin= 2 EnMin= -237.081681664013     IErMin= 2 ErrMin= 4.83D-04
 ErrMax= 4.83D-04 EMaxC= 1.00D-01 BMatC= 2.80D-05 BMatP= 9.69D-04
 IDIUse=3 WtCom= 9.95D-01 WtEn= 4.83D-03
 Coeff-Com: -0.181D-01 0.102D+01
 Coeff-En:   0.000D+00 0.100D+01
 Coeff:     -0.180D-01 0.102D+01
 Gap=     0.384 Goal=   None    Shift=    0.000
 RMSDP=1.01D-04 MaxDP=1.43D-03 DE=-1.85D-03 OVMax= 2.40D-03

 Cycle   3  Pass 0  IDiag  1:
 E= -237.081693714285     Delta-E=       -0.000012050272 Rises=F Damp=F
 DIIS: error= 2.99D-04 at cycle   3 NSaved=   3.
 NSaved= 3 IEnMin= 3 EnMin= -237.081693714285     IErMin= 3 ErrMin= 2.99D-04
 ErrMax= 2.99D-04 EMaxC= 1.00D-01 BMatC= 2.65D-05 BMatP= 2.80D-05
 IDIUse=3 WtCom= 9.97D-01 WtEn= 2.99D-03
 Coeff-Com: -0.371D-01 0.517D+00 0.520D+00
 Coeff-En:   0.000D+00 0.372D+00 0.628D+00
 Coeff:     -0.370D-01 0.517D+00 0.520D+00
 Gap=     0.385 Goal=   None    Shift=    0.000
 RMSDP=5.04D-05 MaxDP=7.44D-04 DE=-1.21D-05 OVMax= 1.07D-03

 Cycle   4  Pass 0  IDiag  1:
 E= -237.081719888930     Delta-E=       -0.000026174645 Rises=F Damp=F
 DIIS: error= 4.98D-05 at cycle   4 NSaved=   4.
 NSaved= 4 IEnMin= 4 EnMin= -237.081719888930     IErMin= 4 ErrMin= 4.98D-05
 ErrMax= 4.98D-05 EMaxC= 1.00D-01 BMatC= 6.97D-07 BMatP= 2.65D-05
 IDIUse=1 WtCom= 1.00D+00 WtEn= 0.00D+00
 Coeff-Com: -0.153D-01 0.160D+00 0.215D+00 0.640D+00
 Coeff:     -0.153D-01 0.160D+00 0.215D+00 0.640D+00
 Gap=     0.385 Goal=   None    Shift=    0.000
 RMSDP=8.28D-06 MaxDP=1.16D-04 DE=-2.62D-05 OVMax= 1.61D-04

 Initial convergence to 1.0D-05 achieved.  Increase integral accuracy.
 Cycle   5  Pass 1  IDiag  1:
 E= -237.081716490901     Delta-E=        0.000003398028 Rises=F Damp=F
 DIIS: error= 9.48D-06 at cycle   1 NSaved=   1.
 NSaved= 1 IEnMin= 1 EnMin= -237.081716490901     IErMin= 1 ErrMin= 9.48D-06
 ErrMax= 9.48D-06 EMaxC= 1.00D-01 BMatC= 1.85D-08 BMatP= 1.85D-08
 IDIUse=1 WtCom= 1.00D+00 WtEn= 0.00D+00
 Coeff-Com:  0.100D+01
 Coeff:      0.100D+01
 Gap=     0.385 Goal=   None    Shift=    0.000
 RMSDP=8.28D-06 MaxDP=1.16D-04 DE= 3.40D-06 OVMax= 6.66D-05

 Cycle   6  Pass 1  IDiag  1:
 E= -237.081716493198     Delta-E=       -0.000000002296 Rises=F Damp=F
 DIIS: error= 9.06D-06 at cycle   2 NSaved=   2.
 NSaved= 2 IEnMin= 2 EnMin= -237.081716493198     IErMin= 2 ErrMin= 9.06D-06
 ErrMax= 9.06D-06 EMaxC= 1.00D-01 BMatC= 1.86D-08 BMatP= 1.85D-08
 IDIUse=1 WtCom= 1.00D+00 WtEn= 0.00D+00
 Coeff-Com:  0.501D+00 0.499D+00
 Coeff:      0.501D+00 0.499D+00
 Gap=     0.385 Goal=   None    Shift=    0.000
 RMSDP=1.41D-06 MaxDP=2.98D-05 DE=-2.30D-09 OVMax= 3.37D-05

 Cycle   7  Pass 1  IDiag  1:
 E= -237.081716511794     Delta-E=       -0.000000018596 Rises=F Damp=F
 DIIS: error= 1.37D-06 at cycle   3 NSaved=   3.
 NSaved= 3 IEnMin= 3 EnMin= -237.081716511794     IErMin= 3 ErrMin= 1.37D-06
 ErrMax= 1.37D-06 EMaxC= 1.00D-01 BMatC= 4.69D-10 BMatP= 1.85D-08
 IDIUse=1 WtCom= 1.00D+00 WtEn= 0.00D+00
 Coeff-Com:  0.157D+00 0.204D+00 0.639D+00
 Coeff:      0.157D+00 0.204D+00 0.639D+00
 Gap=     0.385 Goal=   None    Shift=    0.000
 RMSDP=2.74D-07 MaxDP=4.41D-06 DE=-1.86D-08 OVMax= 5.23D-06

 Cycle   8  Pass 1  IDiag  1:
 E= -237.081716512264     Delta-E=       -0.000000000470 Rises=F Damp=F
 DIIS: error= 3.39D-07 at cycle   4 NSaved=   4.
 NSaved= 4 IEnMin= 4 EnMin= -237.081716512264     IErMin= 4 ErrMin= 3.39D-07
 ErrMax= 3.39D-07 EMaxC= 1.00D-01 BMatC= 2.30D-11 BMatP= 4.69D-10
 IDIUse=1 WtCom= 1.00D+00 WtEn= 0.00D+00
 Coeff-Com: -0.107D-01 0.302D-02 0.190D+00 0.818D+00
 Coeff:     -0.107D-01 0.302D-02 0.190D+00 0.818D+00
 Gap=     0.385 Goal=   None    Shift=    0.000
 RMSDP=6.16D-08 MaxDP=8.07D-07 DE=-4.70D-10 OVMax= 1.20D-06

 Cycle   9  Pass 1  IDiag  1:
 E= -237.081716512290     Delta-E=       -0.000000000026 Rises=F Damp=F
 DIIS: error= 5.69D-08 at cycle   5 NSaved=   5.
 NSaved= 5 IEnMin= 5 EnMin= -237.081716512290     IErMin= 5 ErrMin= 5.69D-08
 ErrMax= 5.69D-08 EMaxC= 1.00D-01 BMatC= 7.53D-13 BMatP= 2.30D-11
 IDIUse=1 WtCom= 1.00D+00 WtEn= 0.00D+00
 Coeff-Com: -0.654D-02-0.137D-02 0.695D-01 0.336D+00 0.602D+00
 Coeff:     -0.654D-02-0.137D-02 0.695D-01 0.336D+00 0.602D+00
 Gap=     0.385 Goal=   None    Shift=    0.000
 RMSDP=7.95D-09 MaxDP=2.37D-07 DE=-2.57D-11 OVMax= 1.71D-07

 SCF Done:  E(RB3LYP) =  -237.081716512     A.U. after    9 cycles
             Convg  =    0.7948D-08             -V/T =  2.0106
 KE= 2.346052378128D+02 PE=-1.060623110311D+03 EE= 3.320823442694D+02
 Leave Link  502 at Fri Sep 18 13:25:17 2015, MaxMem=  402653184 cpu:      92.5
 (Enter /share/apps/g09/l701.exe)
 Compute integral first derivatives.
 ... and contract with generalized density number  0.
 Leave Link  701 at Fri Sep 18 13:25:17 2015, MaxMem=  402653184 cpu:       0.3
 (Enter /share/apps/g09/l702.exe)
 L702 exits ... SP integral derivatives will be done elsewhere.
 Leave Link  702 at Fri Sep 18 13:25:17 2015, MaxMem=  402653184 cpu:       0.0
 (Enter /share/apps/g09/l703.exe)
 Compute integral first derivatives, UseDBF=F ICtDFT=           0.
 Integral derivatives from FoFDir, PRISM(SPDF).
 Calling FoFJK, ICntrl=      2127 FMM=F ISym2X=0 I1Cent= 0 IOpClX= 0 NMat=1 NMatS=1 NMatT=0.
 FoFCou: FMM=F IPFlag=           0 FMFlag=      100000 FMFlg1=         800
         NFxFlg=           0 DoJE=F BraDBF=F KetDBF=F FulRan=T
         Omega=  0.000000  0.000000  1.000000  0.000000  0.000000 ICntrl=    2127 IOpCl=  0
         NMat0=    1 NMatS0=    1 NMatT0=    0 NMatD0=    1 NMtDS0=    0 NMtDT0=    0
         I1Cent=           0 NGrid=           0.
 Symmetry not used in FoFCou.
 Leave Link  703 at Fri Sep 18 13:25:30 2015, MaxMem=  402653184 cpu:      25.7
 (Enter /share/apps/g09/l716.exe)
 Dipole        = 2.95507599D-03-1.15882409D-02 2.06774521D-02
 ***** Axes restored to original set *****
 -------------------------------------------------------------------
 Center     Atomic                   Forces (Hartrees/Bohr)
 Number     Number              X              Y              Z
 -------------------------------------------------------------------
      1        6           0.000006957    0.000774809    0.000166144
      2        1           0.000098247    0.000102228    0.000241980
      3        1           0.000008268    0.000057466   -0.000061632
      4        1          -0.000859357   -0.000172910    0.000030935
      5        6          -0.001673141    0.000060232   -0.000808053
      6        1          -0.000220133   -0.000166550   -0.000555925
      7        1           0.000108977    0.000303632    0.000492052
      8        6           0.000766234   -0.000160348    0.001687901
      9        1          -0.000420302   -0.000171869    0.000621770
     10        6           0.001000935   -0.000070826    0.000089959
     11        1           0.000589479    0.000311660   -0.000637425
     12        1           0.000229509   -0.000212241   -0.000341251
     13        6           0.000487236    0.000225489   -0.000523164
     14        1           0.000387287   -0.000006843   -0.000044539
     15        1           0.000032121   -0.000008964    0.000522225
     16        1           0.000231601    0.000510928   -0.000148878
     17        6          -0.000339650   -0.000750426   -0.000445130
     18        1           0.000132066   -0.000240029    0.000203978
     19        1          -0.000445755   -0.000096742   -0.000635421
     20        1          -0.000120578   -0.000288695    0.000144476
 -------------------------------------------------------------------
 Cartesian Forces:  Max     0.001687901 RMS     0.000497557
 Leave Link  716 at Fri Sep 18 13:25:30 2015, MaxMem=  402653184 cpu:       0.0
 (Enter /share/apps/g09/l103.exe)

 GradGradGradGradGradGradGradGradGradGradGradGradGradGradGradGradGradGrad
 Berny optimization.
 Using GEDIIS/GDIIS optimizer.
 Internal  Forces:  Max     0.003162197 RMS     0.000572744
 Search for a local minimum.
 Step number   2 out of a maximum of  110
 All quantities printed in internal units (Hartrees-Bohrs-Radians)
 RMS Force = .57274D-03 SwitMx=.10000D-02 MixMth= 2
 Mixed Optimization -- En-DIIS/RFO-DIIS
 Update second derivatives using D2CorX and points    1    2
 DE= -9.22D-04 DEPred=-1.25D-03 R= 7.39D-01
 SS=  1.41D+00  RLast= 1.91D-01 DXNew= 5.0454D-01 5.7373D-01
 Trust test= 7.39D-01 RLast= 1.91D-01 DXMaxT set to 5.05D-01
 Use linear search instead of GDIIS.
     Eigenvalues ---    0.00224   0.00231   0.00326   0.00407   0.00416
     Eigenvalues ---    0.03136   0.03305   0.03663   0.04738   0.04796
     Eigenvalues ---    0.04859   0.04906   0.05376   0.05397   0.05431
     Eigenvalues ---    0.05445   0.05506   0.05540   0.08631   0.08961
     Eigenvalues ---    0.12413   0.12657   0.15822   0.16000   0.16000
     Eigenvalues ---    0.16000   0.16000   0.16000   0.16000   0.16000
     Eigenvalues ---    0.16229   0.17516   0.17551   0.21631   0.22656
     Eigenvalues ---    0.27945   0.28204   0.29191   0.29715   0.30169
[...]
 Leave Link  103 at Fri Sep 18 13:32:38 2015, MaxMem=  402653184 cpu:       0.0
 (Enter /share/apps/g09/l202.exe)
                          Input orientation:                          
 ---------------------------------------------------------------------
 Center     Atomic      Atomic             Coordinates (Angstroms)
 Number     Number       Type             X           Y           Z
 ---------------------------------------------------------------------
      1          6           0        2.458703   -0.409752   -0.093506
      2          1           0        2.794046   -0.241693    0.937766
      3          1           0        2.689485    0.493964   -0.668402
      4          1           0        3.062288   -1.224663   -0.509536
      5          6           0        0.965051   -0.754279   -0.139803
      6          1           0        0.665212   -0.914894   -1.184709
      7          1           0        0.808523   -1.714315    0.372689
      8          6           0        0.043898    0.301766    0.506052
      9          1           0        0.440079    0.498005    1.515132
     10          6           0       -1.393965   -0.230477    0.708152
     11          1           0       -1.965592    0.522065    1.269459
     12          1           0       -1.347084   -1.118887    1.353761
     13          6           0       -2.167169   -0.587321   -0.568717
     14          1           0       -1.668870   -1.378446   -1.140243
     15          1           0       -3.172378   -0.946964   -0.320473
     16          1           0       -2.284267    0.278146   -1.230633
     17          6           0        0.059881    1.637195   -0.256193
     18          1           0        1.058972    2.085822   -0.263655
     19          1           0       -0.250271    1.509571   -1.300579
     20          1           0       -0.621241    2.361614    0.206912
 ---------------------------------------------------------------------
                    Distance matrix (angstroms):
                    1          2          3          4          5
     1  C    0.000000
     2  H    1.097369   0.000000
     3  H    1.095659   1.769717   0.000000
     4  H    1.096120   1.769991   1.765758   0.000000
     5  C    1.533571   2.183832   2.193445   2.180911   0.000000
     6  H    2.159283   3.080590   2.519749   2.509540   1.098877
     7  H    2.154604   2.535790   3.081945   2.469320   1.099463
     8  C    2.587858   2.836378   2.900933   3.531584   1.543010
     9  H    2.736161   2.534101   3.134910   3.734012   2.140705
    10  C    3.939269   4.194316   4.369700   4.725396   2.560927
    11  H    4.722323   4.831925   5.042403   5.612082   3.493385
    12  H    4.132973   4.253409   4.794197   4.788072   2.776623
    13  C    4.653606   5.196403   4.976565   5.268485   3.165855
    14  H    4.367023   5.052520   4.766950   4.775490   2.885828
    15  H    5.661200   6.138305   6.046384   6.243711   4.145851
    16  H    4.925651   5.546301   5.010079   5.600364   3.579648
    17  C    3.157658   3.525821   2.896844   4.155582   2.559692
    18  H    2.866372   3.141850   2.314391   3.877248   2.844351
    19  H    3.532615   4.164730   3.173841   4.367475   2.819473
    20  H    4.154127   4.356092   3.900666   5.190672   3.513591
                    6          7          8          9         10
     6  H    0.000000
     7  H    1.756446   0.000000
     8  C    2.173699   2.160328   0.000000
     9  H    3.055505   2.516999   1.101686   0.000000
    10  C    2.879507   2.676801   1.546472   2.132046   0.000000
    11  H    3.874135   3.674412   2.160872   2.418302   1.099155
    12  H    3.245733   2.442064   2.161410   2.415436   1.099219
    13  C    2.917042   3.318298   2.614272   3.509715   1.534789
    14  H    2.380084   2.922200   2.909807   3.875532   2.193165
    15  H    3.933832   4.113013   3.547802   4.302003   2.175816
    16  H    3.181963   4.013216   2.904650   3.874226   2.193222
    17  C    2.782396   3.491214   1.537740   2.140069   2.555744
    18  H    3.163493   3.861179   2.192186   2.463387   3.510918
    19  H    2.594141   3.783426   2.192999   3.070517   2.893234
    20  H    3.785112   4.322604   2.185147   2.512146   2.750868
                   11         12         13         14         15
    11  H    0.000000
    12  H    1.755672   0.000000
    13  C    2.156446   2.156622   0.000000
    14  H    3.083286   2.528037   1.095820   0.000000
    15  H    2.478359   2.482803   1.096090   1.765994   0.000000
    16  H    2.532096   3.083684   1.095846   1.769514   1.765794
    17  C    2.770138   3.488193   3.163209   3.586672   4.138781
    18  H    3.734134   4.321493   4.200802   4.495629   5.206279
    19  H    3.243854   3.893239   2.933782   3.221611   3.941305
    20  H    2.514005   3.735772   3.418729   4.111010   4.211071
                   16         17         18         19         20
    16  H    0.000000
    17  C    2.879510   0.000000
    18  H    3.921733   1.095219   0.000000
    19  H    2.378748   1.096916   1.766746   0.000000
    20  H    3.028701   1.096894   1.766525   1.770911   0.000000
 Stoichiometry    C6H14
 Framework group  C1[X(C6H14)]
 Deg. of freedom    54
 Full point group                 C1      NOp   1
 Largest Abelian subgroup         C1      NOp   1
 Largest concise Abelian subgroup C1      NOp   1
                         Standard orientation:                         
 ---------------------------------------------------------------------
 Center     Atomic      Atomic             Coordinates (Angstroms)
 Number     Number       Type             X           Y           Z
 ---------------------------------------------------------------------
      1          6           0        2.456268   -0.422632   -0.091599
      2          1           0        2.793395   -0.247800    0.937963
      3          1           0        2.691351    0.475036   -0.674177
      4          1           0        3.055151   -1.244173   -0.501340
      5          6           0        0.960765   -0.759577   -0.133800
      6          1           0        0.659170   -0.927269   -1.177088
      7          1           0        0.799582   -1.714476    0.386782
      8          6           0        0.045800    0.306684    0.504014
      9          1           0        0.443896    0.509187    1.511101
     10          6           0       -1.394695   -0.216200    0.711716
     11          1           0       -1.961826    0.544010    1.267220
     12          1           0       -1.351977   -1.099454    1.364648
     13          6           0       -2.170894   -0.579519   -0.561505
     14          1           0       -1.677304   -1.378005   -1.126847
     15          1           0       -3.177784   -0.931733   -0.309452
     16          1           0       -2.283965    0.281031   -1.230495
     17          6           0        0.068220    1.635631   -0.269317
     18          1           0        1.069674    2.078857   -0.281331
     19          1           0       -0.243513    1.500989   -1.312350
     20          1           0       -0.608640    2.367487    0.188312
 ---------------------------------------------------------------------
 Rotational constants (GHZ):      5.1958820      2.0826366      1.7771669
 Leave Link  202 at Fri Sep 18 13:32:38 2015, MaxMem=  402653184 cpu:       0.0
 (Enter /share/apps/g09/l601.exe)
 Copying SCF densities to generalized density rwf, IOpCl= 0 IROHF=0.

 **********************************************************************

            Population analysis using the SCF density.

 **********************************************************************

 Orbital symmetries:
       Occupied  (A) (A) (A) (A) (A) (A) (A) (A) (A) (A) (A) (A)
                 (A) (A) (A) (A) (A) (A) (A) (A) (A) (A) (A) (A)
                 (A)
       Virtual   (A) (A) (A) (A) (A) (A) (A) (A) (A) (A) (A) (A)
                 (A) (A) (A) (A) (A) (A) (A) (A) (A) (A) (A) (A)
                 (A) (A) (A) (A) (A) (A) (A) (A) (A) (A) (A) (A)
                 (A) (A) (A) (A) (A) (A) (A) (A) (A) (A) (A) (A)
                 (A) (A) (A) (A) (A) (A) (A) (A) (A) (A) (A) (A)
                 (A) (A) (A) (A) (A) (A) (A) (A) (A) (A) (A) (A)
                 (A) (A) (A) (A) (A) (A) (A) (A) (A) (A) (A) (A)
                 (A) (A) (A) (A) (A) (A) (A) (A) (A)
 The electronic state is 1-A.
 Alpha  occ. eigenvalues --  -10.18097 -10.17458 -10.17424 -10.16979 -10.16884
 Alpha  occ. eigenvalues --  -10.16748  -0.80623  -0.74160  -0.70520  -0.64366
 Alpha  occ. eigenvalues --   -0.60518  -0.53677  -0.45981  -0.44532  -0.43734
 Alpha  occ. eigenvalues --   -0.41476  -0.38345  -0.37825  -0.37400  -0.36166
 Alpha  occ. eigenvalues --   -0.35007  -0.33043  -0.31061  -0.30677  -0.30162
 Alpha virt. eigenvalues --    0.08309   0.11649   0.12389   0.12899   0.14953
 Alpha virt. eigenvalues --    0.16041   0.16115   0.17242   0.17665   0.18500
 Alpha virt. eigenvalues --    0.19086   0.21139   0.22176   0.22969   0.23981
 Alpha virt. eigenvalues --    0.24741   0.26451   0.27885   0.29200   0.49750
 Alpha virt. eigenvalues --    0.51192   0.51455   0.52178   0.54912   0.57051
 Alpha virt. eigenvalues --    0.59202   0.62738   0.63866   0.67063   0.68316
 Alpha virt. eigenvalues --    0.69013   0.74211   0.77124   0.82440   0.83531
 Alpha virt. eigenvalues --    0.86088   0.86762   0.88712   0.88915   0.89951
 Alpha virt. eigenvalues --    0.90376   0.91918   0.93781   0.94210   0.96113
 Alpha virt. eigenvalues --    0.97285   0.98832   0.99981   1.01109   1.02777
 Alpha virt. eigenvalues --    1.04086   1.05799   1.27813   1.30221   1.42122
 Alpha virt. eigenvalues --    1.42553   1.57816   1.60261   1.62520   1.68410
 Alpha virt. eigenvalues --    1.72342   1.73594   1.77781   1.83189   1.89358
 Alpha virt. eigenvalues --    1.95139   1.96555   1.97339   2.00540   2.03841
 Alpha virt. eigenvalues --    2.08841   2.11364   2.13555   2.16319   2.28660
 Alpha virt. eigenvalues --    2.30225   2.31044   2.33342   2.34537   2.36384
 Alpha virt. eigenvalues --    2.41665   2.48261   2.55706   2.61441   2.68361
 Alpha virt. eigenvalues --    2.74403   2.78322   4.11087   4.21581   4.27183
 Alpha virt. eigenvalues --    4.41040   4.44557   4.59539
          Condensed to atoms (all electrons):
              1          2          3          4          5          6
     1  C    5.073063   0.376341   0.377519   0.371866   0.371147  -0.039584
     2  H    0.376341   0.580884  -0.032918  -0.031468  -0.035809   0.005301
     3  H    0.377519  -0.032918   0.574115  -0.031447  -0.033136  -0.004701
     4  H    0.371866  -0.031468  -0.031447   0.579814  -0.027849  -0.002207
     5  C    0.371147  -0.035809  -0.033136  -0.027849   4.992736   0.371034
     6  H   -0.039584   0.005301  -0.004701  -0.002207   0.371034   0.611904
     7  H   -0.039273  -0.003973   0.005164  -0.003666   0.372268  -0.039206
     8  C   -0.039129  -0.004766  -0.005165   0.004046   0.391310  -0.036352
     9  H   -0.006042   0.006294  -0.000200   0.000011  -0.049997   0.006494
    10  C    0.004132   0.000019   0.000049  -0.000136  -0.043226  -0.005049
    11  H   -0.000155  -0.000007   0.000003   0.000002   0.005410  -0.000104
    12  H    0.000000  -0.000007   0.000001  -0.000005  -0.006356  -0.000180
    13  C    0.000149   0.000004  -0.000010   0.000003  -0.006655   0.002768
    14  H   -0.000099   0.000000   0.000006   0.000007   0.003894   0.001803
    15  H   -0.000001   0.000000   0.000000   0.000000   0.000076  -0.000043
    16  H   -0.000015   0.000000  -0.000001   0.000000  -0.000434   0.000186
    17  C   -0.003433  -0.000514   0.002415   0.000065  -0.051083  -0.008166
    18  H    0.001905   0.000339   0.002829  -0.000084  -0.004193  -0.000105
    19  H   -0.000291   0.000071   0.000292  -0.000019  -0.005953   0.005552
    20  H    0.000042  -0.000025  -0.000113   0.000001   0.005047  -0.000008
              7          8          9         10         11         12
     1  C   -0.039273  -0.039129  -0.006042   0.004132  -0.000155   0.000000
     2  H   -0.003973  -0.004766   0.006294   0.000019  -0.000007  -0.000007
     3  H    0.005164  -0.005165  -0.000200   0.000049   0.000003   0.000001
     4  H   -0.003666   0.004046   0.000011  -0.000136   0.000002  -0.000005
     5  C    0.372268   0.391310  -0.049997  -0.043226   0.005410  -0.006356
     6  H   -0.039206  -0.036352   0.006494  -0.005049  -0.000104  -0.000180
     7  H    0.617034  -0.039409  -0.003109  -0.004131   0.000052   0.006043
     8  C   -0.039409   4.858918   0.375008   0.387330  -0.034251  -0.035485
     9  H   -0.003109   0.375008   0.651673  -0.042654  -0.003993  -0.003719
    10  C   -0.004131   0.387330  -0.042654   4.995953   0.369121   0.370503
    11  H    0.000052  -0.034251  -0.003993   0.369121   0.619138  -0.037344
    12  H    0.006043  -0.035485  -0.003719   0.370503  -0.037344   0.617151
    13  C   -0.000713  -0.042444   0.005430   0.373294  -0.041089  -0.040799
    14  H    0.000647  -0.005267   0.000011  -0.035182   0.005269  -0.004199
    15  H   -0.000049   0.004350  -0.000144  -0.028068  -0.003369  -0.003208
    16  H    0.000078  -0.005236   0.000021  -0.035130  -0.004081   0.005254
    17  C    0.005736   0.375715  -0.048830  -0.049362  -0.005667   0.005848
    18  H   -0.000046  -0.028610  -0.004384   0.004833  -0.000064  -0.000173
    19  H    0.000015  -0.033329   0.005840  -0.005981  -0.000156  -0.000048
    20  H   -0.000177  -0.030670  -0.002854  -0.004136   0.005061   0.000005
             13         14         15         16         17         18
     1  C    0.000149  -0.000099  -0.000001  -0.000015  -0.003433   0.001905
     2  H    0.000004   0.000000   0.000000   0.000000  -0.000514   0.000339
     3  H   -0.000010   0.000006   0.000000  -0.000001   0.002415   0.002829
     4  H    0.000003   0.000007   0.000000   0.000000   0.000065  -0.000084
     5  C   -0.006655   0.003894   0.000076  -0.000434  -0.051083  -0.004193
     6  H    0.002768   0.001803  -0.000043   0.000186  -0.008166  -0.000105
     7  H   -0.000713   0.000647  -0.000049   0.000078   0.005736  -0.000046
     8  C   -0.042444  -0.005267   0.004350  -0.005236   0.375715  -0.028610
     9  H    0.005430   0.000011  -0.000144   0.000021  -0.048830  -0.004384
    10  C    0.373294  -0.035182  -0.028068  -0.035130  -0.049362   0.004833
    11  H   -0.041089   0.005269  -0.003369  -0.004081  -0.005667  -0.000064
    12  H   -0.040799  -0.004199  -0.003208   0.005254   0.005848  -0.000173
    13  C    5.073819   0.378290   0.373153   0.378558  -0.006562   0.000099
    14  H    0.378290   0.573446  -0.031508  -0.032760  -0.000263  -0.000017
    15  H    0.373153  -0.031508   0.579317  -0.031649   0.000048   0.000000
    16  H    0.378558  -0.032760  -0.031649   0.574190   0.003735  -0.000105
    17  C   -0.006562  -0.000263   0.000048   0.003735   5.119301   0.371299
    18  H    0.000099  -0.000017   0.000000  -0.000105   0.371299   0.575529
    19  H    0.002792   0.000157  -0.000072   0.001991   0.372717  -0.032226
    20  H   -0.000403   0.000057  -0.000036   0.000349   0.369670  -0.030610
             19         20
     1  C   -0.000291   0.000042
     2  H    0.000071  -0.000025
     3  H    0.000292  -0.000113
     4  H   -0.000019   0.000001
     5  C   -0.005953   0.005047
     6  H    0.005552  -0.000008
     7  H    0.000015  -0.000177
     8  C   -0.033329  -0.030670
     9  H    0.005840  -0.002854
    10  C   -0.005981  -0.004136
    11  H   -0.000156   0.005061
    12  H   -0.000048   0.000005
    13  C    0.002792  -0.000403
    14  H    0.000157   0.000057
    15  H   -0.000072  -0.000036
    16  H    0.001991   0.000349
    17  C    0.372717   0.369670
    18  H   -0.032226  -0.030610
    19  H    0.579469  -0.032127
    20  H   -0.032127   0.582571
 Mulliken atomic charges:
              1
     1  C   -0.448142
     2  H    0.140232
     3  H    0.145297
     4  H    0.141066
     5  C   -0.248230
     6  H    0.130665
     7  H    0.126715
     8  C   -0.056566
     9  H    0.115145
    10  C   -0.252180
    11  H    0.126225
    12  H    0.126718
    13  C   -0.449683
    14  H    0.145711
    15  H    0.141203
    16  H    0.145048
    17  C   -0.452668
    18  H    0.143785
    19  H    0.141306
    20  H    0.138357
 Sum of Mulliken atomic charges =   0.00000
 Mulliken charges with hydrogens summed into heavy atoms:
              1
     1  C   -0.021547
     5  C    0.009150
     8  C    0.058579
    10  C    0.000762
    13  C   -0.017722
    17  C   -0.029222
 Sum of Mulliken charges with hydrogens summed into heavy atoms =   0.00000
 Electronic spatial extent (au):  <R**2>=            804.3052
 Charge=              0.0000 electrons
 Dipole moment (field-independent basis, Debye):
    X=              0.0040    Y=             -0.0265    Z=              0.0505  Tot=              0.0572
 Quadrupole moment (field-independent basis, Debye-Ang):
   XX=            -41.8858   YY=            -41.4807   ZZ=            -41.3554
   XY=             -0.1407   XZ=             -0.1355   YZ=              0.0218
 Traceless Quadrupole moment (field-independent basis, Debye-Ang):
   XX=             -0.3118   YY=              0.0933   ZZ=              0.2186
   XY=             -0.1407   XZ=             -0.1355   YZ=              0.0218
 Octapole moment (field-independent basis, Debye-Ang**2):
  XXX=             -1.5805  YYY=             -1.1415  ZZZ=              0.0432  XYY=              0.1534
  XXY=              0.4176  XXZ=              0.6338  XZZ=              0.6677  YZZ=              0.0297
  YYZ=              0.5108  XYZ=              0.1706
 Hexadecapole moment (field-independent basis, Debye-Ang**3):
 XXXX=           -707.9800 YYYY=           -270.6427 ZZZZ=           -141.9371 XXXY=              0.5122
 XXXZ=             -3.3921 YYYX=             -1.6099 YYYZ=              1.4797 ZZZX=              1.3136
 ZZZY=             -0.3239 XXYY=           -158.6085 XXZZ=           -141.4867 YYZZ=            -67.9810
 XXYZ=             -0.1969 YYXZ=             -1.9117 ZZXY=             -1.1138
 N-N= 2.574962217953D+02 E-N=-1.061923496633D+03  KE= 2.346220003410D+02
 No NMR shielding tensors so no spin-rotation constants.
 Leave Link  601 at Fri Sep 18 13:32:38 2015, MaxMem=  402653184 cpu:       0.3
 (Enter /share/apps/g09/l9999.exe)
 1\1\GINC-COMPUTE-0-10\FOpt\RB3LYP\6-31G(d)\C6H14\HETANJIN\18-Sep-2015\
 0\\#p B3LYP/6-31G(d) opt=tight int=ultrafine\\using B3LYP/6-31G(d) to 
 do opt and freq calc.\\0,1\C,2.4587030669,-0.409751782,-0.0935055277\H
 ,2.7940463834,-0.2416931548,0.937765776\H,2.6894849501,0.4939641215,-0
 .6684017456\H,3.06228848,-1.2246633503,-0.5095364908\C,0.9650506279,-0
 .7542790598,-0.1398025008\H,0.6652123559,-0.9148941959,-1.1847093054\H
 ,0.8085229637,-1.7143151076,0.3726893428\C,0.0438978467,0.3017655939,0
 .5060521491\H,0.4400792546,0.4980045021,1.5151318187\C,-1.3939647025,-
 0.2304765932,0.7081518532\H,-1.9655916878,0.5220654164,1.2694586379\H,
 -1.3470843756,-1.1188869426,1.3537605743\C,-2.1671687553,-0.5873209519
 ,-0.5687167145\H,-1.6688703504,-1.3784457744,-1.1402433708\H,-3.172377
 8518,-0.9469644209,-0.3204730371\H,-2.2842674981,0.2781462752,-1.23063
 34796\C,0.0598812335,1.6371946292,-0.256193096\H,1.0589717323,2.085822
 0189,-0.2636550122\H,-0.2502706425,1.5095711189,-1.3005789855\H,-0.621
 2410311,2.3616136572,0.206912114\\Version=EM64L-G09RevA.01\State=1-A\H
 F=-237.0819265\RMSD=8.198e-09\RMSF=3.439e-07\Dipole=0.0016056,-0.01057
 08,0.0197797\Quadrupole=-0.2305384,0.0679569,0.1625815,-0.1053497,-0.1
 02055,0.0147894\PG=C01 [X(C6H14)]\\@


 ... FOR AFTERWARDS A MAN FINDS PLEASURE IN HIS PAINS,
 WHEN HE HAS SUFFERED LONG AND WANDERED FAR.

                                    -- HOMER
 Job cpu time:  0 days  0 hours 18 minutes 42.2 seconds.
 File lengths (MBytes):  RWF=     15 Int=      0 D2E=      0 Chk=      2 Scr=      1
 Normal termination of Gaussian 09 at Fri Sep 18 13:32:39 2015.
