 Entering Gaussian System, Link 0=/home/hetanjin/apps/g09D01/g09/g09
 Input=C6H14_5_r008_C1_2_opt_B3L.gjf
 Output=C6H14_5_r008_C1_2_opt_B3L.log
 Initial command:
 /home/hetanjin/apps/g09D01/g09/l1.exe "/state/partition1/Gau-25929.inp" -scrdir="/state/partition1/"
 Entering Link 1 = /home/hetanjin/apps/g09D01/g09/l1.exe PID=     25930.
  
 Copyright (c) 1988,1990,1992,1993,1995,1998,2003,2009,2013,
            Gaussian, Inc.  All Rights Reserved.
  
 This is part of the Gaussian(R) 09 program.  It is based on
 the Gaussian(R) 03 system (copyright 2003, Gaussian, Inc.),
 the Gaussian(R) 98 system (copyright 1998, Gaussian, Inc.),
 the Gaussian(R) 94 system (copyright 1995, Gaussian, Inc.),
 the Gaussian 92(TM) system (copyright 1992, Gaussian, Inc.),
 the Gaussian 90(TM) system (copyright 1990, Gaussian, Inc.),
 the Gaussian 88(TM) system (copyright 1988, Gaussian, Inc.),
 the Gaussian 86(TM) system (copyright 1986, Carnegie Mellon
 University), and the Gaussian 82(TM) system (copyright 1983,
 Carnegie Mellon University). Gaussian is a federally registered
 trademark of Gaussian, Inc.
  
 This software contains proprietary and confidential information,
 including trade secrets, belonging to Gaussian, Inc.
  
 This software is provided under written license and may be
 used, copied, transmitted, or stored only in accord with that
 written license.
  
 The following legend is applicable only to US Government
 contracts under FAR:
  
                    RESTRICTED RIGHTS LEGEND
  
 Use, reproduction and disclosure by the US Government is
 subject to restrictions as set forth in subparagraphs (a)
 and (c) of the Commercial Computer Software - Restricted
 Rights clause in FAR 52.227-19.
  
 Gaussian, Inc.
 340 Quinnipiac St., Bldg. 40, Wallingford CT 06492
  
  
 ---------------------------------------------------------------
 Warning -- This program may not be used in any manner that
 competes with the business of Gaussian, Inc. or will provide
 assistance to any competitor of Gaussian, Inc.  The licensee
 of this program is prohibited from giving any competitor of
 Gaussian, Inc. access to this program.  By using this program,
 the user acknowledges that Gaussian, Inc. is engaged in the
 business of creating and licensing software in the field of
 computational chemistry and represents and warrants to the
 licensee that it is not a competitor of Gaussian, Inc. and that
 it will not use this program in any manner prohibited above.
 ---------------------------------------------------------------
  

 Cite this work as:
 Gaussian 09, Revision D.01,
 M. J. Frisch, G. W. Trucks, H. B. Schlegel, G. E. Scuseria, 
 M. A. Robb, J. R. Cheeseman, G. Scalmani, V. Barone, B. Mennucci, 
 G. A. Petersson, H. Nakatsuji, M. Caricato, X. Li, H. P. Hratchian, 
 A. F. Izmaylov, J. Bloino, G. Zheng, J. L. Sonnenberg, M. Hada, 
 M. Ehara, K. Toyota, R. Fukuda, J. Hasegawa, M. Ishida, T. Nakajima, 
 Y. Honda, O. Kitao, H. Nakai, T. Vreven, J. A. Montgomery, Jr., 
 J. E. Peralta, F. Ogliaro, M. Bearpark, J. J. Heyd, E. Brothers, 
 K. N. Kudin, V. N. Staroverov, T. Keith, R. Kobayashi, J. Normand, 
 K. Raghavachari, A. Rendell, J. C. Burant, S. S. Iyengar, J. Tomasi, 
 M. Cossi, N. Rega, J. M. Millam, M. Klene, J. E. Knox, J. B. Cross, 
 V. Bakken, C. Adamo, J. Jaramillo, R. Gomperts, R. E. Stratmann, 
 O. Yazyev, A. J. Austin, R. Cammi, C. Pomelli, J. W. Ochterski, 
 R. L. Martin, K. Morokuma, V. G. Zakrzewski, G. A. Voth, 
 P. Salvador, J. J. Dannenberg, S. Dapprich, A. D. Daniels, 
 O. Farkas, J. B. Foresman, J. V. Ortiz, J. Cioslowski, 
 and D. J. Fox, Gaussian, Inc., Wallingford CT, 2013.
 
 ******************************************
 Gaussian 09:  ES64L-G09RevD.01 24-Apr-2013
                 7-Nov-2015 
 ******************************************
 %mem=6GB
 %nprocshared=4
 Will use up to    4 processors via shared memory.
 ----------------------------------------------
 #p B3LYP/6-31G(d) opt=tight int=ultrafine freq
 ----------------------------------------------
 1/7=10,14=-1,18=20,19=15,26=4,38=1/1,3;
 2/9=110,12=2,17=6,18=5,40=1/2;
 3/5=1,6=6,7=1,11=2,16=1,25=1,30=1,71=1,74=-5,75=-5/1,2,3;
 4//1;
 5/5=2,38=5/2;
 6/7=2,8=2,9=2,10=2,28=1/1;
 7//1,2,3,16;
 1/7=10,14=-1,18=20,19=15,26=4/3(2);
 2/9=110/2;
 99//99;
 2/9=110/2;
 3/5=1,6=6,7=1,11=2,16=1,25=1,30=1,71=1,74=-5,75=-5/1,2,3;
 4/5=5,16=3,69=1/1;
 5/5=2,38=5/2;
 7//1,2,3,16;
 1/7=10,14=-1,18=20,19=15,26=4/3(-5);
 2/9=110/2;
 6/7=2,8=2,9=2,10=2,19=2,28=1/1;
 99/9=1/99;
 Leave Link    1 at Sat Nov  7 02:13:32 2015, MaxMem=   805306368 cpu:         0.2
 (Enter /home/hetanjin/apps/g09D01/g09/l101.exe)
 ---------------------------------------------
 using B3LYP/6-31G(d) to do opt and freq calc.
 ---------------------------------------------
 Symbolic Z-matrix:
 Charge =  0 Multiplicity = 2
 C                     1.61803   0.98966  -0.00005 
 H                     1.59367   1.63643   0.88596 
 H                     1.59367   1.63635  -0.88611 
 C                     0.43635  -0.0005    0. 
 C                    -0.87859   0.82391  -0.00003 
 H                    -0.86571   1.48649  -0.87756 
 H                    -0.86571   1.48655   0.87745 
 C                    -2.19348   0.03388  0. 
 H                    -2.28903  -0.60502   0.88496 
 H                    -3.04849   0.71981  -0.00001 
 H                    -2.28904  -0.60506  -0.88493 
 C                     0.5289   -0.88501  -1.25865 
 H                    -0.26244  -1.64248  -1.28525 
 H                     0.44851  -0.28292  -2.17262 
 H                     1.4897   -1.41334  -1.29204 
 C                     0.52891  -0.8849    1.25873 
 H                     1.4897   -1.41324   1.29215 
 H                     0.44854  -0.28273   2.17265 
 H                    -0.26244  -1.64236   1.2854 
 
 NAtoms=     19 NQM=       19 NQMF=       0 NMMI=      0 NMMIF=      0
                NMic=       0 NMicF=      0.
                    Isotopes and Nuclear Properties:
 (Nuclear quadrupole moments (NQMom) in fm**2, nuclear magnetic moments (NMagM)
  in nuclear magnetons)

  Atom         1           2           3           4           5           6           7           8           9          10
 IAtWgt=          12           1           1          12          12           1           1          12           1           1
 AtmWgt=  12.0000000   1.0078250   1.0078250  12.0000000  12.0000000   1.0078250   1.0078250  12.0000000   1.0078250   1.0078250
 NucSpn=           0           1           1           0           0           1           1           0           1           1
 AtZEff=   0.0000000   0.0000000   0.0000000   0.0000000   0.0000000   0.0000000   0.0000000   0.0000000   0.0000000   0.0000000
 NQMom=    0.0000000   0.0000000   0.0000000   0.0000000   0.0000000   0.0000000   0.0000000   0.0000000   0.0000000   0.0000000
 NMagM=    0.0000000   2.7928460   2.7928460   0.0000000   0.0000000   2.7928460   2.7928460   0.0000000   2.7928460   2.7928460
 AtZNuc=   6.0000000   1.0000000   1.0000000   6.0000000   6.0000000   1.0000000   1.0000000   6.0000000   1.0000000   1.0000000

  Atom        11          12          13          14          15          16          17          18          19
 IAtWgt=           1          12           1           1           1          12           1           1           1
 AtmWgt=   1.0078250  12.0000000   1.0078250   1.0078250   1.0078250  12.0000000   1.0078250   1.0078250   1.0078250
 NucSpn=           1           0           1           1           1           0           1           1           1
 AtZEff=   0.0000000   0.0000000   0.0000000   0.0000000   0.0000000   0.0000000   0.0000000   0.0000000   0.0000000
 NQMom=    0.0000000   0.0000000   0.0000000   0.0000000   0.0000000   0.0000000   0.0000000   0.0000000   0.0000000
 NMagM=    2.7928460   0.0000000   2.7928460   2.7928460   2.7928460   0.0000000   2.7928460   2.7928460   2.7928460
 AtZNuc=   1.0000000   6.0000000   1.0000000   1.0000000   1.0000000   6.0000000   1.0000000   1.0000000   1.0000000
 Leave Link  101 at Sat Nov  7 02:13:32 2015, MaxMem=   805306368 cpu:         0.6
 (Enter /home/hetanjin/apps/g09D01/g09/l103.exe)

 GradGradGradGradGradGradGradGradGradGradGradGradGradGradGradGradGradGrad
 Berny optimization.
 Initialization pass.
                           ----------------------------
                           !    Initial Parameters    !
                           ! (Angstroms and Degrees)  !
 --------------------------                            --------------------------
 ! Name  Definition              Value          Derivative Info.                !
 --------------------------------------------------------------------------------
 ! R1    R(1,2)                  1.0972         estimate D2E/DX2                !
 ! R2    R(1,3)                  1.0972         estimate D2E/DX2                !
 ! R3    R(1,4)                  1.5417         estimate D2E/DX2                !
 ! R4    R(4,5)                  1.552          estimate D2E/DX2                !
 ! R5    R(4,12)                 1.5411         estimate D2E/DX2                !
 ! R6    R(4,16)                 1.5411         estimate D2E/DX2                !
 ! R7    R(5,6)                  1.0996         estimate D2E/DX2                !
 ! R8    R(5,7)                  1.0996         estimate D2E/DX2                !
 ! R9    R(5,8)                  1.534          estimate D2E/DX2                !
 ! R10   R(8,9)                  1.0957         estimate D2E/DX2                !
 ! R11   R(8,10)                 1.0961         estimate D2E/DX2                !
 ! R12   R(8,11)                 1.0957         estimate D2E/DX2                !
 ! R13   R(12,13)                1.0958         estimate D2E/DX2                !
 ! R14   R(12,14)                1.0974         estimate D2E/DX2                !
 ! R15   R(12,15)                1.097          estimate D2E/DX2                !
 ! R16   R(16,17)                1.097          estimate D2E/DX2                !
 ! R17   R(16,18)                1.0974         estimate D2E/DX2                !
 ! R18   R(16,19)                1.0958         estimate D2E/DX2                !
 ! A1    A(2,1,3)              107.7092         estimate D2E/DX2                !
 ! A2    A(2,1,4)              111.195          estimate D2E/DX2                !
 ! A3    A(3,1,4)              111.195          estimate D2E/DX2                !
 ! A4    A(1,4,5)              107.9534         estimate D2E/DX2                !
 ! A5    A(1,4,12)             108.8179         estimate D2E/DX2                !
 ! A6    A(1,4,16)             108.8179         estimate D2E/DX2                !
 ! A7    A(5,4,12)             110.8381         estimate D2E/DX2                !
 ! A8    A(5,4,16)             110.8381         estimate D2E/DX2                !
 ! A9    A(12,4,16)            109.5162         estimate D2E/DX2                !
 ! A10   A(4,5,6)              108.0687         estimate D2E/DX2                !
 ! A11   A(4,5,7)              108.0687         estimate D2E/DX2                !
 ! A12   A(4,5,8)              116.915          estimate D2E/DX2                !
 ! A13   A(6,5,7)              105.8765         estimate D2E/DX2                !
 ! A14   A(6,5,8)              108.6851         estimate D2E/DX2                !
 ! A15   A(7,5,8)              108.6852         estimate D2E/DX2                !
 ! A16   A(5,8,9)              112.0296         estimate D2E/DX2                !
 ! A17   A(5,8,10)             110.2629         estimate D2E/DX2                !
 ! A18   A(5,8,11)             112.0296         estimate D2E/DX2                !
 ! A19   A(9,8,10)             107.27           estimate D2E/DX2                !
 ! A20   A(9,8,11)             107.7399         estimate D2E/DX2                !
 ! A21   A(10,8,11)            107.27           estimate D2E/DX2                !
 ! A22   A(4,12,13)            111.913          estimate D2E/DX2                !
 ! A23   A(4,12,14)            111.1551         estimate D2E/DX2                !
 ! A24   A(4,12,15)            110.724          estimate D2E/DX2                !
 ! A25   A(13,12,14)           107.8276         estimate D2E/DX2                !
 ! A26   A(13,12,15)           107.389          estimate D2E/DX2                !
 ! A27   A(14,12,15)           107.6407         estimate D2E/DX2                !
 ! A28   A(4,16,17)            110.7241         estimate D2E/DX2                !
 ! A29   A(4,16,18)            111.155          estimate D2E/DX2                !
 ! A30   A(4,16,19)            111.913          estimate D2E/DX2                !
 ! A31   A(17,16,18)           107.6408         estimate D2E/DX2                !
 ! A32   A(17,16,19)           107.3889         estimate D2E/DX2                !
 ! A33   A(18,16,19)           107.8276         estimate D2E/DX2                !
 ! D1    D(2,1,4,5)             60.0094         estimate D2E/DX2                !
 ! D2    D(2,1,4,12)          -179.6279         estimate D2E/DX2                !
 ! D3    D(2,1,4,16)           -60.3531         estimate D2E/DX2                !
 ! D4    D(3,1,4,5)            -60.01           estimate D2E/DX2                !
 ! D5    D(3,1,4,12)            60.3526         estimate D2E/DX2                !
 ! D6    D(3,1,4,16)           179.6274         estimate D2E/DX2                !
 ! D7    D(1,4,5,6)             57.0744         estimate D2E/DX2                !
 ! D8    D(1,4,5,7)            -57.0751         estimate D2E/DX2                !
 ! D9    D(1,4,5,8)            179.9996         estimate D2E/DX2                !
 ! D10   D(12,4,5,6)           -62.0124         estimate D2E/DX2                !
 ! D11   D(12,4,5,7)          -176.1619         estimate D2E/DX2                !
 ! D12   D(12,4,5,8)            60.9128         estimate D2E/DX2                !
 ! D13   D(16,4,5,6)           176.1612         estimate D2E/DX2                !
 ! D14   D(16,4,5,7)            62.0117         estimate D2E/DX2                !
 ! D15   D(16,4,5,8)           -60.9136         estimate D2E/DX2                !
 ! D16   D(1,4,12,13)          177.2395         estimate D2E/DX2                !
 ! D17   D(1,4,12,14)          -62.1296         estimate D2E/DX2                !
 ! D18   D(1,4,12,15)           57.4635         estimate D2E/DX2                !
 ! D19   D(5,4,12,13)          -64.1959         estimate D2E/DX2                !
 ! D20   D(5,4,12,14)           56.435          estimate D2E/DX2                !
 ! D21   D(5,4,12,15)          176.0282         estimate D2E/DX2                !
 ! D22   D(16,4,12,13)          58.4016         estimate D2E/DX2                !
 ! D23   D(16,4,12,14)         179.0325         estimate D2E/DX2                !
 ! D24   D(16,4,12,15)         -61.3744         estimate D2E/DX2                !
 ! D25   D(1,4,16,17)          -57.4641         estimate D2E/DX2                !
 ! D26   D(1,4,16,18)           62.129          estimate D2E/DX2                !
 ! D27   D(1,4,16,19)         -177.2401         estimate D2E/DX2                !
 ! D28   D(5,4,16,17)         -176.0287         estimate D2E/DX2                !
 ! D29   D(5,4,16,18)          -56.4356         estimate D2E/DX2                !
 ! D30   D(5,4,16,19)           64.1953         estimate D2E/DX2                !
 ! D31   D(12,4,16,17)          61.3738         estimate D2E/DX2                !
 ! D32   D(12,4,16,18)        -179.0331         estimate D2E/DX2                !
 ! D33   D(12,4,16,19)         -58.4022         estimate D2E/DX2                !
 ! D34   D(4,5,8,9)             60.6085         estimate D2E/DX2                !
 ! D35   D(4,5,8,10)           179.9992         estimate D2E/DX2                !
 ! D36   D(4,5,8,11)           -60.6101         estimate D2E/DX2                !
 ! D37   D(6,5,8,9)           -176.7844         estimate D2E/DX2                !
 ! D38   D(6,5,8,10)           -57.3938         estimate D2E/DX2                !
 ! D39   D(6,5,8,11)            61.9969         estimate D2E/DX2                !
 ! D40   D(7,5,8,9)            -61.9986         estimate D2E/DX2                !
 ! D41   D(7,5,8,10)            57.3921         estimate D2E/DX2                !
 ! D42   D(7,5,8,11)           176.7828         estimate D2E/DX2                !
 --------------------------------------------------------------------------------
 Trust Radius=3.00D-01 FncErr=1.00D-07 GrdErr=1.00D-06
 Number of steps in this run=    103 maximum allowed number of steps=    114.
 GradGradGradGradGradGradGradGradGradGradGradGradGradGradGradGradGradGrad

 Leave Link  103 at Sat Nov  7 02:13:32 2015, MaxMem=   805306368 cpu:         0.0
 (Enter /home/hetanjin/apps/g09D01/g09/l202.exe)
                          Input orientation:                          
 ---------------------------------------------------------------------
 Center     Atomic      Atomic             Coordinates (Angstroms)
 Number     Number       Type             X           Y           Z
 ---------------------------------------------------------------------
      1          6           0        1.618032    0.989661   -0.000046
      2          1           0        1.593672    1.636429    0.885962
      3          1           0        1.593672    1.636347   -0.886113
      4          6           0        0.436353   -0.000500    0.000000
      5          6           0       -0.878586    0.823914   -0.000030
      6          1           0       -0.865713    1.486486   -0.877558
      7          1           0       -0.865712    1.486551    0.877447
      8          6           0       -2.193477    0.033880   -0.000001
      9          1           0       -2.289029   -0.605019    0.884964
     10          1           0       -3.048488    0.719808   -0.000012
     11          1           0       -2.289041   -0.605062   -0.884933
     12          6           0        0.528897   -0.885012   -1.258652
     13          1           0       -0.262439   -1.642476   -1.285245
     14          1           0        0.448512   -0.282917   -2.172624
     15          1           0        1.489696   -1.413344   -1.292039
     16          6           0        0.528906   -0.884904    1.258727
     17          1           0        1.489700   -1.413241    1.292148
     18          1           0        0.448537   -0.282728    2.172647
     19          1           0       -0.262436   -1.642360    1.285396
 ---------------------------------------------------------------------
                    Distance matrix (angstroms):
                    1          2          3          4          5
     1  C    0.000000
     2  H    1.097229   0.000000
     3  H    1.097229   1.772075   0.000000
     4  C    1.541682   2.191769   2.191769   0.000000
     5  C    2.502114   2.749040   2.749045   1.552006   0.000000
     6  H    2.680644   3.030026   2.463961   2.162547   1.099647
     7  H    2.680649   2.463961   3.030042   2.162546   1.099645
     8  C    3.929519   4.206613   4.206613   2.630055   1.533979
     9  H    4.311771   4.483242   4.820353   2.928534   2.194177
    10  H    4.674316   4.814021   4.814028   3.558505   2.172398
    11  H    4.311773   4.820354   4.483233   2.928545   2.194176
    12  C    2.506931   3.477180   2.762206   1.541146   2.546677
    13  H    3.480812   4.348621   3.788817   2.199148   2.848595
    14  H    2.776207   3.788170   2.578774   2.190936   2.776046
    15  H    2.731327   3.749082   3.078344   2.185183   3.504764
    16  C    2.506930   2.762209   3.477179   1.541146   2.546677
    17  H    2.731332   3.078357   3.749082   2.185183   3.504763
    18  H    2.776200   2.578770   3.788165   2.190935   2.776047
    19  H    3.480812   3.788818   4.348621   2.199148   2.848591
                    6          7          8          9         10
     6  H    0.000000
     7  H    1.755005   0.000000
     8  C    2.154792   2.154792   0.000000
     9  H    3.083295   2.529931   1.095667   0.000000
    10  H    2.474346   2.474336   1.096148   1.764972   0.000000
    11  H    2.529919   3.083293   1.095666   1.769897   1.764972
    12  C    2.777440   3.483126   3.136859   3.551646   4.117925
    13  H    3.212562   3.851232   2.861980   3.145344   3.872245
    14  H    2.556398   3.763128   3.435223   4.116640   4.237300
    15  H    3.758824   4.320186   4.162882   4.435256   5.178299
    16  C    3.483126   2.777433   3.136866   2.856360   4.117921
    17  H    4.320186   3.758821   4.162884   3.885591   5.178294
    18  H    3.763127   2.556392   3.435241   3.042411   4.237300
    19  H    3.851232   3.212545   2.861983   2.311601   3.872234
                   11         12         13         14         15
    11  H    0.000000
    12  C    2.856364   0.000000
    13  H    2.311621   1.095752   0.000000
    14  H    3.042388   1.097417   1.772369   0.000000
    15  H    3.885603   1.096989   1.767067   1.771259   0.000000
    16  C    3.551678   2.517379   2.769826   3.484684   2.776468
    17  H    4.435281   2.776463   3.124979   3.790297   2.584187
    18  H    4.116677   3.484683   3.783044   4.345271   3.790297
    19  H    3.145384   2.769831   2.570641   3.783046   3.124994
                   16         17         18         19
    16  C    0.000000
    17  H    1.096988   0.000000
    18  H    1.097417   1.771259   0.000000
    19  H    1.095752   1.767066   1.772370   0.000000
 Stoichiometry    C6H13(2)
 Framework group  C1[X(C6H13)]
 Deg. of freedom    51
 Full point group                 C1      NOp   1
 Largest Abelian subgroup         C1      NOp   1
 Largest concise Abelian subgroup C1      NOp   1
                         Standard orientation:                         
 ---------------------------------------------------------------------
 Center     Atomic      Atomic             Coordinates (Angstroms)
 Number     Number       Type             X           Y           Z
 ---------------------------------------------------------------------
      1          6           0        1.643237    1.043511   -0.000047
      2          1           0        1.601528    1.689392    0.885961
      3          1           0        1.601530    1.689310   -0.886114
      4          6           0        0.488557    0.021993   -0.000001
      5          6           0       -0.848033    0.810820   -0.000031
      6          1           0       -0.852947    1.473499   -0.877559
      7          1           0       -0.852948    1.473564    0.877446
      8          6           0       -2.141248   -0.014218   -0.000002
      9          1           0       -2.219619   -0.655452    0.884963
     10          1           0       -3.014360    0.648516   -0.000013
     11          1           0       -2.219630   -0.655495   -0.884934
     12          6           0        0.604807   -0.859717   -1.258653
     13          1           0       -0.165916   -1.638146   -1.285246
     14          1           0        0.508292   -0.259996   -2.172625
     15          1           0        1.579439   -1.362073   -1.292040
     16          6           0        0.604813   -0.859608    1.258726
     17          1           0        1.579440   -1.361969    1.292147
     18          1           0        0.508312   -0.259806    2.172646
     19          1           0       -0.165916   -1.638030    1.285395
 ---------------------------------------------------------------------
 Rotational constants (GHZ):      4.2705358      2.5534670      2.5476847
 Leave Link  202 at Sat Nov  7 02:13:32 2015, MaxMem=   805306368 cpu:         0.1
 (Enter /home/hetanjin/apps/g09D01/g09/l301.exe)
 Standard basis: 6-31G(d) (6D, 7F)
 Ernie: Thresh=  0.10000D-02 Tol=  0.10000D-05 Strict=F.
 There are   116 symmetry adapted cartesian basis functions of A   symmetry.
 There are   116 symmetry adapted basis functions of A   symmetry.
   116 basis functions,   220 primitive gaussians,   116 cartesian basis functions
    25 alpha electrons       24 beta electrons
       nuclear repulsion energy       254.4207148553 Hartrees.
 IExCor=  402 DFT=T Ex+Corr=B3LYP ExCW=0 ScaHFX=  0.200000
 ScaDFX=  0.800000  0.720000  1.000000  0.810000 ScalE2=  1.000000  1.000000
 IRadAn=      5 IRanWt=     -1 IRanGd=            0 ICorTp=0 IEmpDi=  4
 NAtoms=   19 NActive=   19 NUniq=   19 SFac= 1.00D+00 NAtFMM=   60 NAOKFM=F Big=F
 Integral buffers will be    131072 words long.
 Raffenetti 2 integral format.
 Two-electron integral symmetry is turned on.
 Leave Link  301 at Sat Nov  7 02:13:32 2015, MaxMem=   805306368 cpu:         0.2
 (Enter /home/hetanjin/apps/g09D01/g09/l302.exe)
 NPDir=0 NMtPBC=     1 NCelOv=     1 NCel=       1 NClECP=     1 NCelD=      1
         NCelK=      1 NCelE2=     1 NClLst=     1 CellRange=     0.0.
 One-electron integrals computed using PRISM.
 NBasis=   116 RedAO= T EigKep=  3.85D-03  NBF=   116
 NBsUse=   116 1.00D-06 EigRej= -1.00D+00 NBFU=   116
 Precomputing XC quadrature grid using
 IXCGrd= 4 IRadAn=           5 IRanWt=          -1 IRanGd=           0 AccXCQ= 0.00D+00.
 Generated NRdTot=       0 NPtTot=           0 NUsed=           0 NTot=          32
 NSgBfM=   116   116   116   116   116 MxSgAt=    19 MxSgA2=    19.
 Leave Link  302 at Sat Nov  7 02:13:33 2015, MaxMem=   805306368 cpu:         1.7
 (Enter /home/hetanjin/apps/g09D01/g09/l303.exe)
 DipDrv:  MaxL=1.
 Leave Link  303 at Sat Nov  7 02:13:33 2015, MaxMem=   805306368 cpu:         0.2
 (Enter /home/hetanjin/apps/g09D01/g09/l401.exe)
 ExpMin= 1.61D-01 ExpMax= 3.05D+03 ExpMxC= 4.57D+02 IAcc=3 IRadAn=         5 AccDes= 0.00D+00
 Harris functional with IExCor=  402 and IRadAn=       5 diagonalized for initial guess.
 HarFok:  IExCor=  402 AccDes= 0.00D+00 IRadAn=         5 IDoV= 1 UseB2=F ITyADJ=14
 ICtDFT=  3500011 ScaDFX=  1.000000  1.000000  1.000000  1.000000
 FoFCou: FMM=F IPFlag=           0 FMFlag=      100000 FMFlg1=           0
         NFxFlg=           0 DoJE=T BraDBF=F KetDBF=T FulRan=T
         wScrn=  0.000000 ICntrl=     500 IOpCl=  0 I1Cent=   200000004 NGrid=           0
         NMat0=    1 NMatS0=      1 NMatT0=    0 NMatD0=    1 NMtDS0=    0 NMtDT0=    0
 Petite list used in FoFCou.
 Harris En= -236.440003577381    
 JPrj=0 DoOrth=F DoCkMO=F.
 Initial guess <Sx>= 0.0000 <Sy>= 0.0000 <Sz>= 0.5000 <S**2>= 0.7500 S= 0.5000
 Leave Link  401 at Sat Nov  7 02:13:35 2015, MaxMem=   805306368 cpu:         8.7
 (Enter /home/hetanjin/apps/g09D01/g09/l502.exe)
 UHF open shell SCF:
 Using DIIS extrapolation, IDIIS=  1040.
 Integral symmetry usage will be decided dynamically.
 Keep R1 and R2 ints in memory in canonical form, NReq=47059932.
 IVT=       60514 IEndB=       60514 NGot=   805306368 MDV=   759189273
 LenX=   759189273 LenY=   759175376
 Requested convergence on RMS density matrix=1.00D-08 within 128 cycles.
 Requested convergence on MAX density matrix=1.00D-06.
 Requested convergence on             energy=1.00D-06.
 No special actions if energy rises.
 FoFCou: FMM=F IPFlag=           0 FMFlag=           0 FMFlg1=           0
         NFxFlg=           0 DoJE=F BraDBF=F KetDBF=F FulRan=T
         wScrn=  0.000000 ICntrl=     600 IOpCl=  0 I1Cent=           0 NGrid=           0
         NMat0=    1 NMatS0=   6786 NMatT0=    0 NMatD0=    1 NMtDS0=    0 NMtDT0=    0
 Symmetry not used in FoFCou.
 Integral accuracy reduced to 1.0D-05 until final iterations.

 Cycle   1  Pass 0  IDiag  1:
 E= -236.144683551025    
 DIIS: error= 5.21D-02 at cycle   1 NSaved=   1.
 NSaved= 1 IEnMin= 1 EnMin= -236.144683551025     IErMin= 1 ErrMin= 5.21D-02
 ErrMax= 5.21D-02  0.00D+00 EMaxC= 1.00D-01 BMatC= 9.15D-01 BMatP= 9.15D-01
 IDIUse=3 WtCom= 4.79D-01 WtEn= 5.21D-01
 Coeff-Com:  0.100D+01
 Coeff-En:   0.100D+01
 Coeff:      0.100D+01
 Gap=     0.271 Goal=   None    Shift=    0.000
 Gap=     0.216 Goal=   None    Shift=    0.000
 GapD=    0.216 DampG=1.000 DampE=0.500 DampFc=0.5000 IDamp=-1.
 Damping current iteration by 5.00D-01
 RMSDP=9.70D-03 MaxDP=1.37D-01              OVMax= 1.79D-01

 Cycle   2  Pass 0  IDiag  1:
 E= -236.256892567457     Delta-E=       -0.112209016433 Rises=F Damp=T
 DIIS: error= 9.12D-03 at cycle   2 NSaved=   2.
 NSaved= 2 IEnMin= 2 EnMin= -236.256892567457     IErMin= 2 ErrMin= 9.12D-03
 ErrMax= 9.12D-03  0.00D+00 EMaxC= 1.00D-01 BMatC= 4.20D-02 BMatP= 9.15D-01
 IDIUse=3 WtCom= 9.09D-01 WtEn= 9.12D-02
 Coeff-Com:  0.794D-01 0.921D+00
 Coeff-En:   0.134D+00 0.866D+00
 Coeff:      0.843D-01 0.916D+00
 Gap=     0.307 Goal=   None    Shift=    0.000
 Gap=     0.268 Goal=   None    Shift=    0.000
 RMSDP=1.72D-03 MaxDP=2.81D-02 DE=-1.12D-01 OVMax= 1.06D-01

 Cycle   3  Pass 0  IDiag  1:
 E= -236.398024483597     Delta-E=       -0.141131916139 Rises=F Damp=F
 DIIS: error= 3.25D-03 at cycle   3 NSaved=   3.
 NSaved= 3 IEnMin= 3 EnMin= -236.398024483597     IErMin= 3 ErrMin= 3.25D-03
 ErrMax= 3.25D-03  0.00D+00 EMaxC= 1.00D-01 BMatC= 9.01D-03 BMatP= 4.20D-02
 IDIUse=3 WtCom= 9.67D-01 WtEn= 3.25D-02
 Coeff-Com:  0.387D-02 0.265D+00 0.731D+00
 Coeff-En:   0.000D+00 0.000D+00 0.100D+01
 Coeff:      0.374D-02 0.257D+00 0.740D+00
 Gap=     0.309 Goal=   None    Shift=    0.000
 Gap=     0.242 Goal=   None    Shift=    0.000
 RMSDP=6.93D-04 MaxDP=1.72D-02 DE=-1.41D-01 OVMax= 1.71D-02

 Cycle   4  Pass 0  IDiag  1:
 E= -236.399455612008     Delta-E=       -0.001431128412 Rises=F Damp=F
 DIIS: error= 2.25D-03 at cycle   4 NSaved=   4.
 NSaved= 4 IEnMin= 4 EnMin= -236.399455612008     IErMin= 4 ErrMin= 2.25D-03
 ErrMax= 2.25D-03  0.00D+00 EMaxC= 1.00D-01 BMatC= 3.45D-03 BMatP= 9.01D-03
 IDIUse=3 WtCom= 9.77D-01 WtEn= 2.25D-02
 Coeff-Com: -0.508D-02 0.352D-01 0.388D+00 0.582D+00
 Coeff-En:   0.000D+00 0.000D+00 0.266D+00 0.734D+00
 Coeff:     -0.496D-02 0.344D-01 0.386D+00 0.585D+00
 Gap=     0.304 Goal=   None    Shift=    0.000
 Gap=     0.250 Goal=   None    Shift=    0.000
 RMSDP=2.50D-04 MaxDP=5.86D-03 DE=-1.43D-03 OVMax= 1.04D-02

 Cycle   5  Pass 0  IDiag  1:
 E= -236.400293040651     Delta-E=       -0.000837428642 Rises=F Damp=F
 DIIS: error= 3.61D-04 at cycle   5 NSaved=   5.
 NSaved= 5 IEnMin= 5 EnMin= -236.400293040651     IErMin= 5 ErrMin= 3.61D-04
 ErrMax= 3.61D-04  0.00D+00 EMaxC= 1.00D-01 BMatC= 7.69D-05 BMatP= 3.45D-03
 IDIUse=3 WtCom= 9.96D-01 WtEn= 3.61D-03
 Coeff-Com: -0.146D-02-0.282D-02 0.893D-01 0.203D+00 0.712D+00
 Coeff-En:   0.000D+00 0.000D+00 0.000D+00 0.000D+00 0.100D+01
 Coeff:     -0.146D-02-0.281D-02 0.890D-01 0.202D+00 0.713D+00
 Gap=     0.305 Goal=   None    Shift=    0.000
 Gap=     0.249 Goal=   None    Shift=    0.000
 RMSDP=4.95D-05 MaxDP=9.11D-04 DE=-8.37D-04 OVMax= 1.11D-03

 Cycle   6  Pass 0  IDiag  1:
 E= -236.400312520481     Delta-E=       -0.000019479831 Rises=F Damp=F
 DIIS: error= 1.06D-04 at cycle   6 NSaved=   6.
 NSaved= 6 IEnMin= 6 EnMin= -236.400312520481     IErMin= 6 ErrMin= 1.06D-04
 ErrMax= 1.06D-04  0.00D+00 EMaxC= 1.00D-01 BMatC= 4.73D-06 BMatP= 7.69D-05
 IDIUse=3 WtCom= 9.99D-01 WtEn= 1.06D-03
 Coeff-Com: -0.147D-03-0.259D-02 0.683D-03 0.201D-01 0.184D+00 0.798D+00
 Coeff-En:   0.000D+00 0.000D+00 0.000D+00 0.000D+00 0.000D+00 0.100D+01
 Coeff:     -0.147D-03-0.259D-02 0.683D-03 0.201D-01 0.184D+00 0.798D+00
 Gap=     0.305 Goal=   None    Shift=    0.000
 Gap=     0.249 Goal=   None    Shift=    0.000
 RMSDP=1.74D-05 MaxDP=4.78D-04 DE=-1.95D-05 OVMax= 4.87D-04

 Cycle   7  Pass 0  IDiag  1:
 E= -236.400314095212     Delta-E=       -0.000001574730 Rises=F Damp=F
 DIIS: error= 6.36D-05 at cycle   7 NSaved=   7.
 NSaved= 7 IEnMin= 7 EnMin= -236.400314095212     IErMin= 7 ErrMin= 6.36D-05
 ErrMax= 6.36D-05  0.00D+00 EMaxC= 1.00D-01 BMatC= 1.48D-06 BMatP= 4.73D-06
 IDIUse=1 WtCom= 1.00D+00 WtEn= 0.00D+00
 Coeff-Com:  0.211D-03-0.422D-03-0.187D-01-0.345D-01-0.802D-01 0.346D+00
 Coeff-Com:  0.788D+00
 Coeff:      0.211D-03-0.422D-03-0.187D-01-0.345D-01-0.802D-01 0.346D+00
 Coeff:      0.788D+00
 Gap=     0.305 Goal=   None    Shift=    0.000
 Gap=     0.249 Goal=   None    Shift=    0.000
 RMSDP=7.26D-06 MaxDP=2.78D-04 DE=-1.57D-06 OVMax= 2.75D-04

 Initial convergence to 1.0D-05 achieved.  Increase integral accuracy.
 Cycle   8  Pass 1  IDiag  1:
 E= -236.400285916263     Delta-E=        0.000028178948 Rises=F Damp=F
 DIIS: error= 1.68D-05 at cycle   1 NSaved=   1.
 NSaved= 1 IEnMin= 1 EnMin= -236.400285916263     IErMin= 1 ErrMin= 1.68D-05
 ErrMax= 1.68D-05  0.00D+00 EMaxC= 1.00D-01 BMatC= 1.11D-07 BMatP= 1.11D-07
 IDIUse=1 WtCom= 1.00D+00 WtEn= 0.00D+00
 Coeff-Com:  0.100D+01
 Coeff:      0.100D+01
 Gap=     0.305 Goal=   None    Shift=    0.000
 Gap=     0.249 Goal=   None    Shift=    0.000
 RMSDP=7.26D-06 MaxDP=2.78D-04 DE= 2.82D-05 OVMax= 7.19D-05

 Cycle   9  Pass 1  IDiag  1:
 E= -236.400285941918     Delta-E=       -0.000000025655 Rises=F Damp=F
 DIIS: error= 1.31D-05 at cycle   2 NSaved=   2.
 NSaved= 2 IEnMin= 2 EnMin= -236.400285941918     IErMin= 2 ErrMin= 1.31D-05
 ErrMax= 1.31D-05  0.00D+00 EMaxC= 1.00D-01 BMatC= 6.34D-08 BMatP= 1.11D-07
 IDIUse=1 WtCom= 1.00D+00 WtEn= 0.00D+00
 Coeff-Com:  0.414D+00 0.586D+00
 Coeff:      0.414D+00 0.586D+00
 Gap=     0.305 Goal=   None    Shift=    0.000
 Gap=     0.249 Goal=   None    Shift=    0.000
 RMSDP=1.18D-06 MaxDP=3.60D-05 DE=-2.57D-08 OVMax= 3.39D-05

 Cycle  10  Pass 1  IDiag  1:
 E= -236.400285957908     Delta-E=       -0.000000015990 Rises=F Damp=F
 DIIS: error= 4.09D-06 at cycle   3 NSaved=   3.
 NSaved= 3 IEnMin= 3 EnMin= -236.400285957908     IErMin= 3 ErrMin= 4.09D-06
 ErrMax= 4.09D-06  0.00D+00 EMaxC= 1.00D-01 BMatC= 5.40D-09 BMatP= 6.34D-08
 IDIUse=1 WtCom= 1.00D+00 WtEn= 0.00D+00
 Coeff-Com: -0.351D-01 0.155D+00 0.880D+00
 Coeff:     -0.351D-01 0.155D+00 0.880D+00
 Gap=     0.305 Goal=   None    Shift=    0.000
 Gap=     0.249 Goal=   None    Shift=    0.000
 RMSDP=5.33D-07 MaxDP=1.60D-05 DE=-1.60D-08 OVMax= 1.40D-05

 Cycle  11  Pass 1  IDiag  1:
 E= -236.400285959910     Delta-E=       -0.000000002002 Rises=F Damp=F
 DIIS: error= 1.62D-06 at cycle   4 NSaved=   4.
 NSaved= 4 IEnMin= 4 EnMin= -236.400285959910     IErMin= 4 ErrMin= 1.62D-06
 ErrMax= 1.62D-06  0.00D+00 EMaxC= 1.00D-01 BMatC= 9.79D-10 BMatP= 5.40D-09
 IDIUse=1 WtCom= 1.00D+00 WtEn= 0.00D+00
 Coeff-Com: -0.867D-01-0.544D-01 0.304D+00 0.837D+00
 Coeff:     -0.867D-01-0.544D-01 0.304D+00 0.837D+00
 Gap=     0.305 Goal=   None    Shift=    0.000
 Gap=     0.249 Goal=   None    Shift=    0.000
 RMSDP=2.57D-07 MaxDP=6.42D-06 DE=-2.00D-09 OVMax= 6.57D-06

 Cycle  12  Pass 1  IDiag  1:
 E= -236.400285960317     Delta-E=       -0.000000000407 Rises=F Damp=F
 DIIS: error= 4.33D-07 at cycle   5 NSaved=   5.
 NSaved= 5 IEnMin= 5 EnMin= -236.400285960317     IErMin= 5 ErrMin= 4.33D-07
 ErrMax= 4.33D-07  0.00D+00 EMaxC= 1.00D-01 BMatC= 5.59D-11 BMatP= 9.79D-10
 IDIUse=1 WtCom= 1.00D+00 WtEn= 0.00D+00
 Coeff-Com: -0.131D-01-0.272D-01-0.297D-01 0.161D+00 0.909D+00
 Coeff:     -0.131D-01-0.272D-01-0.297D-01 0.161D+00 0.909D+00
 Gap=     0.305 Goal=   None    Shift=    0.000
 Gap=     0.249 Goal=   None    Shift=    0.000
 RMSDP=6.68D-08 MaxDP=2.47D-06 DE=-4.07D-10 OVMax= 2.32D-06

 Cycle  13  Pass 1  IDiag  1:
 E= -236.400285960340     Delta-E=       -0.000000000023 Rises=F Damp=F
 DIIS: error= 2.32D-07 at cycle   6 NSaved=   6.
 NSaved= 6 IEnMin= 6 EnMin= -236.400285960340     IErMin= 6 ErrMin= 2.32D-07
 ErrMax= 2.32D-07  0.00D+00 EMaxC= 1.00D-01 BMatC= 1.59D-11 BMatP= 5.59D-11
 IDIUse=1 WtCom= 1.00D+00 WtEn= 0.00D+00
 Coeff-Com:  0.164D-02-0.835D-02-0.424D-01 0.761D-03 0.434D+00 0.615D+00
 Coeff:      0.164D-02-0.835D-02-0.424D-01 0.761D-03 0.434D+00 0.615D+00
 Gap=     0.305 Goal=   None    Shift=    0.000
 Gap=     0.249 Goal=   None    Shift=    0.000
 RMSDP=2.19D-08 MaxDP=6.17D-07 DE=-2.34D-11 OVMax= 6.02D-07

 Cycle  14  Pass 1  IDiag  1:
 E= -236.400285960343     Delta-E=       -0.000000000003 Rises=F Damp=F
 DIIS: error= 2.74D-08 at cycle   7 NSaved=   7.
 NSaved= 7 IEnMin= 7 EnMin= -236.400285960343     IErMin= 7 ErrMin= 2.74D-08
 ErrMax= 2.74D-08  0.00D+00 EMaxC= 1.00D-01 BMatC= 3.31D-13 BMatP= 1.59D-11
 IDIUse=1 WtCom= 1.00D+00 WtEn= 0.00D+00
 Coeff-Com:  0.116D-02-0.505D-03-0.862D-02-0.886D-02 0.510D-01 0.153D+00
 Coeff-Com:  0.813D+00
 Coeff:      0.116D-02-0.505D-03-0.862D-02-0.886D-02 0.510D-01 0.153D+00
 Coeff:      0.813D+00
 Gap=     0.305 Goal=   None    Shift=    0.000
 Gap=     0.249 Goal=   None    Shift=    0.000
 RMSDP=3.87D-09 MaxDP=7.61D-08 DE=-3.35D-12 OVMax= 9.98D-08

 SCF Done:  E(UB3LYP) =  -236.400285960     A.U. after   14 cycles
            NFock= 14  Conv=0.39D-08     -V/T= 2.0103
 <Sx>= 0.0000 <Sy>= 0.0000 <Sz>= 0.5000 <S**2>= 0.7527 S= 0.5013
 <L.S>= 0.000000000000E+00
 KE= 2.339796659694D+02 PE=-1.054373611076D+03 EE= 3.295729442915D+02
 Annihilation of the first spin contaminant:
 S**2 before annihilation     0.7527,   after     0.7500
 Leave Link  502 at Sat Nov  7 02:14:24 2015, MaxMem=   805306368 cpu:       180.9
 (Enter /home/hetanjin/apps/g09D01/g09/l601.exe)
 Copying SCF densities to generalized density rwf, IOpCl= 1 IROHF=0.

 **********************************************************************

            Population analysis using the SCF density.

 **********************************************************************

 Orbital symmetries:
 Alpha Orbitals:
       Occupied  (A) (A) (A) (A) (A) (A) (A) (A) (A) (A) (A) (A)
                 (A) (A) (A) (A) (A) (A) (A) (A) (A) (A) (A) (A)
                 (A)
       Virtual   (A) (A) (A) (A) (A) (A) (A) (A) (A) (A) (A) (A)
                 (A) (A) (A) (A) (A) (A) (A) (A) (A) (A) (A) (A)
                 (A) (A) (A) (A) (A) (A) (A) (A) (A) (A) (A) (A)
                 (A) (A) (A) (A) (A) (A) (A) (A) (A) (A) (A) (A)
                 (A) (A) (A) (A) (A) (A) (A) (A) (A) (A) (A) (A)
                 (A) (A) (A) (A) (A) (A) (A) (A) (A) (A) (A) (A)
                 (A) (A) (A) (A) (A) (A) (A) (A) (A) (A) (A) (A)
                 (A) (A) (A) (A) (A) (A) (A)
 Beta  Orbitals:
       Occupied  (A) (A) (A) (A) (A) (A) (A) (A) (A) (A) (A) (A)
                 (A) (A) (A) (A) (A) (A) (A) (A) (A) (A) (A) (A)
       Virtual   (A) (A) (A) (A) (A) (A) (A) (A) (A) (A) (A) (A)
                 (A) (A) (A) (A) (A) (A) (A) (A) (A) (A) (A) (A)
                 (A) (A) (A) (A) (A) (A) (A) (A) (A) (A) (A) (A)
                 (A) (A) (A) (A) (A) (A) (A) (A) (A) (A) (A) (A)
                 (A) (A) (A) (A) (A) (A) (A) (A) (A) (A) (A) (A)
                 (A) (A) (A) (A) (A) (A) (A) (A) (A) (A) (A) (A)
                 (A) (A) (A) (A) (A) (A) (A) (A) (A) (A) (A) (A)
                 (A) (A) (A) (A) (A) (A) (A) (A)
 The electronic state is 2-A.
 Alpha  occ. eigenvalues --  -10.19660 -10.19135 -10.18256 -10.17491 -10.16853
 Alpha  occ. eigenvalues --  -10.16852  -0.82027  -0.73371  -0.67894  -0.67482
 Alpha  occ. eigenvalues --   -0.61640  -0.52351  -0.45588  -0.45493  -0.42486
 Alpha  occ. eigenvalues --   -0.42212  -0.38485  -0.37457  -0.37309  -0.36232
 Alpha  occ. eigenvalues --   -0.34319  -0.32460  -0.31482  -0.31417  -0.22711
 Alpha virt. eigenvalues --    0.07795   0.12395   0.13139   0.14134   0.14198
 Alpha virt. eigenvalues --    0.15250   0.16613   0.17333   0.17699   0.20328
 Alpha virt. eigenvalues --    0.20593   0.22396   0.22485   0.24177   0.24195
 Alpha virt. eigenvalues --    0.25439   0.26273   0.27234   0.49458   0.51092
 Alpha virt. eigenvalues --    0.51590   0.51641   0.52924   0.57073   0.59611
 Alpha virt. eigenvalues --    0.60502   0.61814   0.66788   0.70766   0.71209
 Alpha virt. eigenvalues --    0.74720   0.74871   0.78274   0.85685   0.86134
 Alpha virt. eigenvalues --    0.88004   0.89253   0.90451   0.90995   0.91555
 Alpha virt. eigenvalues --    0.91920   0.92886   0.93857   0.95649   0.96040
 Alpha virt. eigenvalues --    0.97402   0.99139   0.99858   1.01819   1.03792
 Alpha virt. eigenvalues --    1.24977   1.37316   1.39211   1.40778   1.48818
 Alpha virt. eigenvalues --    1.59779   1.61846   1.67846   1.69837   1.72843
 Alpha virt. eigenvalues --    1.79776   1.85583   1.86996   1.91724   1.93198
 Alpha virt. eigenvalues --    1.97294   1.99937   2.08791   2.10008   2.10617
 Alpha virt. eigenvalues --    2.11680   2.15852   2.24351   2.24565   2.26985
 Alpha virt. eigenvalues --    2.27168   2.30351   2.35235   2.36097   2.47134
 Alpha virt. eigenvalues --    2.57928   2.68243   2.71422   2.73625   2.75691
 Alpha virt. eigenvalues --    4.11524   4.21908   4.26078   4.31332   4.44311
 Alpha virt. eigenvalues --    4.66691
  Beta  occ. eigenvalues --  -10.19685 -10.18150 -10.17696 -10.17454 -10.16835
  Beta  occ. eigenvalues --  -10.16834  -0.81530  -0.73069  -0.67861  -0.65869
  Beta  occ. eigenvalues --   -0.60535  -0.51993  -0.45416  -0.45169  -0.42226
  Beta  occ. eigenvalues --   -0.41825  -0.38329  -0.37220  -0.37099  -0.35812
  Beta  occ. eigenvalues --   -0.34226  -0.31551  -0.31389  -0.30951
  Beta virt. eigenvalues --   -0.06048   0.07978   0.12665   0.13333   0.14341
  Beta virt. eigenvalues --    0.14529   0.15327   0.16850   0.17476   0.17861
  Beta virt. eigenvalues --    0.20508   0.20997   0.22481   0.22724   0.24520
  Beta virt. eigenvalues --    0.24895   0.25884   0.26372   0.27943   0.49842
  Beta virt. eigenvalues --    0.51301   0.51620   0.51941   0.54307   0.59276
  Beta virt. eigenvalues --    0.60656   0.62001   0.63248   0.67272   0.71314
  Beta virt. eigenvalues --    0.71473   0.74775   0.75628   0.78627   0.86064
  Beta virt. eigenvalues --    0.86473   0.88123   0.89353   0.90524   0.91411
  Beta virt. eigenvalues --    0.92069   0.92226   0.93614   0.94243   0.96207
  Beta virt. eigenvalues --    0.96540   0.97752   0.99388   0.99890   1.01855
  Beta virt. eigenvalues --    1.03974   1.25536   1.38436   1.39920   1.41768
  Beta virt. eigenvalues --    1.48911   1.60261   1.62656   1.68027   1.70348
  Beta virt. eigenvalues --    1.74099   1.80432   1.87175   1.87701   1.93482
  Beta virt. eigenvalues --    1.93606   1.97645   2.03470   2.09354   2.11089
  Beta virt. eigenvalues --    2.11920   2.11938   2.17953   2.25013   2.25446
  Beta virt. eigenvalues --    2.27379   2.28093   2.30448   2.35718   2.36242
  Beta virt. eigenvalues --    2.47808   2.58319   2.68519   2.71447   2.74149
  Beta virt. eigenvalues --    2.76764   4.12322   4.24382   4.26505   4.31357
  Beta virt. eigenvalues --    4.44474   4.66878
          Condensed to atoms (all electrons):
               1          2          3          4          5          6
     1  C    5.388955   0.347512   0.347512   0.387271  -0.059097  -0.004684
     2  H    0.347512   0.602719  -0.044675  -0.038159  -0.002526  -0.000306
     3  H    0.347512  -0.044675   0.602719  -0.038159  -0.002526   0.005565
     4  C    0.387271  -0.038159  -0.038159   4.747977   0.387471  -0.035915
     5  C   -0.059097  -0.002526  -0.002526   0.387471   5.042056   0.366387
     6  H   -0.004684  -0.000306   0.005565  -0.035915   0.366387   0.615776
     7  H   -0.004684   0.005565  -0.000306  -0.035915   0.366387  -0.037634
     8  C    0.004926  -0.000105  -0.000105  -0.035106   0.364958  -0.039216
     9  H    0.000044  -0.000004   0.000002  -0.005490  -0.034179   0.005172
    10  H   -0.000138   0.000000   0.000000   0.003963  -0.026535  -0.003320
    11  H    0.000044   0.000002  -0.000004  -0.005490  -0.034178  -0.004096
    12  C   -0.059271   0.005937  -0.006547   0.381204  -0.056066  -0.006906
    13  H    0.005381  -0.000212  -0.000063  -0.028207  -0.005617  -0.000099
    14  H   -0.004645  -0.000058   0.004018  -0.030021  -0.004587   0.004711
    15  H   -0.002269   0.000016  -0.000059  -0.029353   0.005421  -0.000074
    16  C   -0.059271  -0.006547   0.005937   0.381204  -0.056066   0.006345
    17  H   -0.002268  -0.000059   0.000016  -0.029353   0.005421  -0.000179
    18  H   -0.004645   0.004018  -0.000058  -0.030021  -0.004587  -0.000038
    19  H    0.005381  -0.000063  -0.000212  -0.028207  -0.005617  -0.000062
               7          8          9         10         11         12
     1  C   -0.004684   0.004926   0.000044  -0.000138   0.000044  -0.059271
     2  H    0.005565  -0.000105  -0.000004   0.000000   0.000002   0.005937
     3  H   -0.000306  -0.000105   0.000002   0.000000  -0.000004  -0.006547
     4  C   -0.035915  -0.035106  -0.005490   0.003963  -0.005490   0.381204
     5  C    0.366387   0.364958  -0.034179  -0.026535  -0.034178  -0.056066
     6  H   -0.037634  -0.039216   0.005172  -0.003320  -0.004096  -0.006906
     7  H    0.615776  -0.039216  -0.004096  -0.003320   0.005172   0.006345
     8  C   -0.039216   5.077247   0.377798   0.371429   0.377798  -0.005848
     9  H   -0.004096   0.377798   0.569649  -0.031164  -0.032365  -0.000414
    10  H   -0.003320   0.371429  -0.031164   0.574940  -0.031164   0.000083
    11  H    0.005172   0.377798  -0.032365  -0.031164   0.569649   0.003412
    12  C    0.006345  -0.005848  -0.000414   0.000083   0.003412   5.150842
    13  H   -0.000062   0.001646   0.000194  -0.000049   0.002793   0.365356
    14  H   -0.000038  -0.000257   0.000052  -0.000030   0.000286   0.365897
    15  H   -0.000179   0.000094  -0.000020   0.000000  -0.000114   0.368955
    16  C   -0.006906  -0.005849   0.003412   0.000083  -0.000414  -0.064859
    17  H   -0.000074   0.000094  -0.000114   0.000000  -0.000020  -0.004152
    18  H    0.004711  -0.000257   0.000286  -0.000030   0.000052   0.005712
    19  H   -0.000099   0.001646   0.002794  -0.000049   0.000194  -0.004891
              13         14         15         16         17         18
     1  C    0.005381  -0.004645  -0.002269  -0.059271  -0.002268  -0.004645
     2  H   -0.000212  -0.000058   0.000016  -0.006547  -0.000059   0.004018
     3  H   -0.000063   0.004018  -0.000059   0.005937   0.000016  -0.000058
     4  C   -0.028207  -0.030021  -0.029353   0.381204  -0.029353  -0.030021
     5  C   -0.005617  -0.004587   0.005421  -0.056066   0.005421  -0.004587
     6  H   -0.000099   0.004711  -0.000074   0.006345  -0.000179  -0.000038
     7  H   -0.000062  -0.000038  -0.000179  -0.006906  -0.000074   0.004711
     8  C    0.001646  -0.000257   0.000094  -0.005849   0.000094  -0.000257
     9  H    0.000194   0.000052  -0.000020   0.003412  -0.000114   0.000286
    10  H   -0.000049  -0.000030   0.000000   0.000083   0.000000  -0.000030
    11  H    0.002793   0.000286  -0.000114  -0.000414  -0.000020   0.000052
    12  C    0.365356   0.365897   0.368955  -0.064859  -0.004152   0.005712
    13  H    0.582649  -0.031531  -0.031076  -0.004891  -0.000187  -0.000035
    14  H   -0.031531   0.585444  -0.030068   0.005712  -0.000059  -0.000197
    15  H   -0.031076  -0.030068   0.574349  -0.004152   0.003947  -0.000059
    16  C   -0.004891   0.005712  -0.004152   5.150842   0.368955   0.365897
    17  H   -0.000187  -0.000059   0.003947   0.368955   0.574348  -0.030068
    18  H   -0.000035  -0.000197  -0.000059   0.365897  -0.030068   0.585444
    19  H    0.004094  -0.000035  -0.000187   0.365356  -0.031076  -0.031531
              19
     1  C    0.005381
     2  H   -0.000063
     3  H   -0.000212
     4  C   -0.028207
     5  C   -0.005617
     6  H   -0.000062
     7  H   -0.000099
     8  C    0.001646
     9  H    0.002794
    10  H   -0.000049
    11  H    0.000194
    12  C   -0.004891
    13  H    0.004094
    14  H   -0.000035
    15  H   -0.000187
    16  C    0.365356
    17  H   -0.031076
    18  H   -0.031531
    19  H    0.582650
          Atomic-Atomic Spin Densities.
               1          2          3          4          5          6
     1  C    1.128102  -0.011582  -0.011582  -0.033362  -0.026267   0.001172
     2  H   -0.011582  -0.025626   0.006180   0.001527  -0.002059   0.000086
     3  H   -0.011582   0.006180  -0.025626   0.001527  -0.002059   0.000176
     4  C   -0.033362   0.001527   0.001527  -0.032662   0.015139   0.000131
     5  C   -0.026267  -0.002059  -0.002059   0.015139   0.072930  -0.001725
     6  H    0.001172   0.000086   0.000176   0.000131  -0.001725  -0.002017
     7  H    0.001172   0.000176   0.000087   0.000131  -0.001726   0.000432
     8  C    0.002495   0.000128   0.000128  -0.003622  -0.017185   0.001024
     9  H   -0.000009  -0.000001   0.000000   0.000030   0.000242  -0.000023
    10  H   -0.000103  -0.000005  -0.000005   0.000120   0.001667  -0.000197
    11  H   -0.000009   0.000000  -0.000001   0.000030   0.000242   0.000008
    12  C   -0.008518   0.000144   0.001077   0.004968  -0.004108   0.000109
    13  H    0.000158  -0.000001  -0.000048   0.000285   0.001022  -0.000023
    14  H   -0.000071   0.000007   0.000018   0.000403  -0.000218  -0.000004
    15  H    0.003720  -0.000070  -0.000253  -0.000609   0.000424  -0.000016
    16  C   -0.008518   0.001077   0.000144   0.004968  -0.004108   0.000037
    17  H    0.003720  -0.000253  -0.000070  -0.000609   0.000424  -0.000004
    18  H   -0.000071   0.000018   0.000007   0.000403  -0.000218   0.000001
    19  H    0.000158  -0.000048  -0.000001   0.000285   0.001022  -0.000005
               7          8          9         10         11         12
     1  C    0.001172   0.002495  -0.000009  -0.000103  -0.000009  -0.008518
     2  H    0.000176   0.000128  -0.000001  -0.000005   0.000000   0.000144
     3  H    0.000087   0.000128   0.000000  -0.000005  -0.000001   0.001077
     4  C    0.000131  -0.003622   0.000030   0.000120   0.000030   0.004968
     5  C   -0.001726  -0.017185   0.000242   0.001667   0.000242  -0.004108
     6  H    0.000432   0.001024  -0.000023  -0.000197   0.000008   0.000109
     7  H   -0.002017   0.001024   0.000008  -0.000197  -0.000023   0.000037
     8  C    0.001024   0.036963  -0.000244  -0.004501  -0.000244   0.000760
     9  H    0.000008  -0.000244  -0.000838   0.000090   0.000060  -0.000010
    10  H   -0.000197  -0.004501   0.000090   0.006452   0.000090  -0.000015
    11  H   -0.000023  -0.000244   0.000060   0.000090  -0.000838   0.000005
    12  C    0.000037   0.000760  -0.000010  -0.000015   0.000005   0.013076
    13  H   -0.000005  -0.000542   0.000004   0.000029   0.000011  -0.001093
    14  H    0.000001   0.000054   0.000000  -0.000002  -0.000004   0.000000
    15  H   -0.000004  -0.000072   0.000001   0.000001   0.000003  -0.003486
    16  C    0.000109   0.000760   0.000005  -0.000015  -0.000010   0.002993
    17  H   -0.000016  -0.000072   0.000003   0.000001   0.000001  -0.000783
    18  H   -0.000004   0.000054  -0.000004  -0.000002   0.000000   0.000005
    19  H   -0.000023  -0.000542   0.000011   0.000029   0.000004  -0.000340
              13         14         15         16         17         18
     1  C    0.000158  -0.000071   0.003720  -0.008518   0.003720  -0.000071
     2  H   -0.000001   0.000007  -0.000070   0.001077  -0.000253   0.000018
     3  H   -0.000048   0.000018  -0.000253   0.000144  -0.000070   0.000007
     4  C    0.000285   0.000403  -0.000609   0.004968  -0.000609   0.000403
     5  C    0.001022  -0.000218   0.000424  -0.004108   0.000424  -0.000218
     6  H   -0.000023  -0.000004  -0.000016   0.000037  -0.000004   0.000001
     7  H   -0.000005   0.000001  -0.000004   0.000109  -0.000016  -0.000004
     8  C   -0.000542   0.000054  -0.000072   0.000760  -0.000072   0.000054
     9  H    0.000004   0.000000   0.000001   0.000005   0.000003  -0.000004
    10  H    0.000029  -0.000002   0.000001  -0.000015   0.000001  -0.000002
    11  H    0.000011  -0.000004   0.000003  -0.000010   0.000001   0.000000
    12  C   -0.001093   0.000000  -0.003486   0.002993  -0.000783   0.000005
    13  H   -0.000702   0.000067   0.000967  -0.000340   0.000122   0.000003
    14  H    0.000067  -0.000648  -0.000018   0.000005  -0.000006   0.000000
    15  H    0.000967  -0.000018   0.000859  -0.000783   0.000293  -0.000006
    16  C   -0.000340   0.000005  -0.000783   0.013076  -0.003486   0.000000
    17  H    0.000122  -0.000006   0.000293  -0.003486   0.000859  -0.000018
    18  H    0.000003   0.000000  -0.000006   0.000000  -0.000018  -0.000648
    19  H   -0.000041   0.000003   0.000122  -0.001093   0.000967   0.000067
              19
     1  C    0.000158
     2  H   -0.000048
     3  H   -0.000001
     4  C    0.000285
     5  C    0.001022
     6  H   -0.000005
     7  H   -0.000023
     8  C   -0.000542
     9  H    0.000011
    10  H    0.000029
    11  H    0.000004
    12  C   -0.000340
    13  H   -0.000041
    14  H    0.000003
    15  H    0.000122
    16  C   -0.001093
    17  H    0.000967
    18  H    0.000067
    19  H   -0.000702
 Mulliken charges and spin densities:
               1          2
     1  C   -0.286054   1.040605
     2  H    0.126945  -0.030301
     3  H    0.126945  -0.030301
     4  C    0.080304  -0.040918
     5  C   -0.246515   0.033438
     6  H    0.128572  -0.000839
     7  H    0.128572  -0.000839
     8  C   -0.451675   0.016366
     9  H    0.148443  -0.000675
    10  H    0.145302   0.003440
    11  H    0.148443  -0.000675
    12  C   -0.444788   0.004819
    13  H    0.139913  -0.000129
    14  H    0.135406  -0.000413
    15  H    0.144829   0.001073
    16  C   -0.444788   0.004819
    17  H    0.144829   0.001073
    18  H    0.135406  -0.000413
    19  H    0.139913  -0.000128
 Sum of Mulliken charges =   0.00000   1.00000
 Mulliken charges and spin densities with hydrogens summed into heavy atoms:
               1          2
     1  C   -0.032164   0.980003
     4  C    0.080304  -0.040918
     5  C    0.010629   0.031760
     8  C   -0.009488   0.018455
    12  C   -0.024641   0.005350
    16  C   -0.024640   0.005350
 Electronic spatial extent (au):  <R**2>=            679.8452
 Charge=              0.0000 electrons
 Dipole moment (field-independent basis, Debye):
    X=             -0.7060    Y=              0.1355    Z=              0.0000  Tot=              0.7189
 Quadrupole moment (field-independent basis, Debye-Ang):
   XX=            -42.7795   YY=            -40.3820   ZZ=            -40.6566
   XY=             -0.4062   XZ=              0.0000   YZ=              0.0000
 Traceless Quadrupole moment (field-independent basis, Debye-Ang):
   XX=             -1.5068   YY=              0.8907   ZZ=              0.6161
   XY=             -0.4062   XZ=              0.0000   YZ=              0.0000
 Octapole moment (field-independent basis, Debye-Ang**2):
  XXX=             -7.4061  YYY=              0.2093  ZZZ=             -0.0003  XYY=             -0.5909
  XXY=             -1.9451  XXZ=              0.0001  XZZ=             -0.8580  YZZ=              1.7820
  YYZ=              0.0002  XYZ=              0.0000
 Hexadecapole moment (field-independent basis, Debye-Ang**3):
 XXXX=           -484.5603 YYYY=           -239.3657 ZZZZ=           -238.1530 XXXY=            -12.8826
 XXXZ=              0.0003 YYYX=              0.5063 YYYZ=              0.0001 ZZZX=             -0.0003
 ZZZY=             -0.0001 XXYY=           -116.0166 XXZZ=           -118.3220 YYZZ=            -78.5159
 XXYZ=             -0.0001 YYXZ=              0.0000 ZZXY=              1.8222
 N-N= 2.544207148553D+02 E-N=-1.054373607888D+03  KE= 2.339796659694D+02
                          Isotropic Fermi Contact Couplings
        Atom                 a.u.       MegaHertz       Gauss      10(-4) cm-1
     1  C(13)              0.30371     341.42420     121.82864     113.88685
     2  H(1)              -0.00415     -18.53159      -6.61253      -6.18147
     3  H(1)              -0.00415     -18.53153      -6.61251      -6.18145
     4  C(13)             -0.01003     -11.27498      -4.02319      -3.76093
     5  C(13)              0.04873      54.78300      19.54794      18.27364
     6  H(1)              -0.00015      -0.66550      -0.23747      -0.22199
     7  H(1)              -0.00015      -0.66566      -0.23752      -0.22204
     8  C(13)              0.01292      14.52726       5.18369       4.84577
     9  H(1)              -0.00024      -1.06665      -0.38061      -0.35580
    10  H(1)               0.00133       5.96204       2.12740       1.98872
    11  H(1)              -0.00024      -1.06665      -0.38061      -0.35580
    12  C(13)              0.00791       8.89672       3.17457       2.96763
    13  H(1)              -0.00012      -0.55339      -0.19746      -0.18459
    14  H(1)              -0.00020      -0.89222      -0.31837      -0.29761
    15  H(1)              -0.00020      -0.87212      -0.31119      -0.29091
    16  C(13)              0.00791       8.89697       3.17466       2.96771
    17  H(1)              -0.00020      -0.87211      -0.31119      -0.29091
    18  H(1)              -0.00020      -0.89223      -0.31837      -0.29762
    19  H(1)              -0.00012      -0.55330      -0.19743      -0.18456
 --------------------------------------------------------
       Center         ----  Spin Dipole Couplings  ----
                      3XX-RR        3YY-RR        3ZZ-RR
 --------------------------------------------------------
     1   Atom        0.619776     -0.141519     -0.478258
     2   Atom       -0.020198     -0.008779      0.028977
     3   Atom       -0.020198     -0.008790      0.028988
     4   Atom        0.037104     -0.013453     -0.023651
     5   Atom        0.053944     -0.024480     -0.029465
     6   Atom        0.007377     -0.004021     -0.003355
     7   Atom        0.007377     -0.004021     -0.003356
     8   Atom        0.020053     -0.007361     -0.012692
     9   Atom        0.002054     -0.000746     -0.001308
    10   Atom        0.003663     -0.000870     -0.002793
    11   Atom        0.002054     -0.000746     -0.001308
    12   Atom       -0.001989      0.000862      0.001127
    13   Atom       -0.000078      0.002236     -0.002158
    14   Atom       -0.001721     -0.003069      0.004790
    15   Atom       -0.005639      0.008218     -0.002579
    16   Atom       -0.001989      0.000860      0.001129
    17   Atom       -0.005639      0.008216     -0.002577
    18   Atom       -0.001721     -0.003070      0.004791
    19   Atom       -0.000078      0.002235     -0.002157
 --------------------------------------------------------
                        XY            XZ            YZ
 --------------------------------------------------------
     1   Atom       -0.610992      0.000030     -0.000016
     2   Atom       -0.019366      0.004946      0.058286
     3   Atom       -0.019366     -0.004944     -0.058282
     4   Atom        0.015922     -0.000001      0.000000
     5   Atom       -0.019066      0.000000      0.000000
     6   Atom       -0.003749      0.007229     -0.004997
     7   Atom       -0.003750     -0.007229      0.004997
     8   Atom        0.013988      0.000000      0.000000
     9   Atom        0.002578     -0.001557     -0.001988
    10   Atom       -0.000605      0.000000      0.000000
    11   Atom        0.002578      0.001557      0.001988
    12   Atom        0.009466      0.009787      0.011182
    13   Atom        0.003878      0.001919      0.002881
    14   Atom        0.002904      0.005866      0.005342
    15   Atom        0.002318      0.001239      0.009639
    16   Atom        0.009465     -0.009788     -0.011183
    17   Atom        0.002318     -0.001239     -0.009640
    18   Atom        0.002904     -0.005866     -0.005342
    19   Atom        0.003877     -0.001920     -0.002881
 --------------------------------------------------------


 ---------------------------------------------------------------------------------
              Anisotropic Spin Dipole Couplings in Principal Axis System
 ---------------------------------------------------------------------------------

       Atom             a.u.   MegaHertz   Gauss  10(-4) cm-1        Axes

              Baa    -0.4807   -64.510   -23.019   -21.518  0.4854  0.8743  0.0000
     1 C(13)  Bbb    -0.4783   -64.178   -22.900   -21.407  0.0000  0.0001  1.0000
              Bcc     0.9590   128.688    45.919    42.926  0.8743 -0.4854  0.0000
 
              Baa    -0.0599   -31.980   -11.411   -10.667  0.4269  0.7452 -0.5123
     2 H(1)   Bbb    -0.0120    -6.423    -2.292    -2.143  0.9005 -0.2987  0.3159
              Bcc     0.0720    38.403    13.703    12.810 -0.0824  0.5962  0.7986
 
              Baa    -0.0599   -31.980   -11.411   -10.667  0.4269  0.7453  0.5122
     3 H(1)   Bbb    -0.0120    -6.423    -2.292    -2.143  0.9005 -0.2988 -0.3159
              Bcc     0.0720    38.403    13.703    12.810  0.0824 -0.5961  0.7987
 
              Baa    -0.0237    -3.174    -1.132    -1.059  0.0000  0.0001  1.0000
     4 C(13)  Bbb    -0.0180    -2.422    -0.864    -0.808 -0.2774  0.9608 -0.0001
              Bcc     0.0417     5.596     1.997     1.867  0.9608  0.2774  0.0000
 
              Baa    -0.0295    -3.954    -1.411    -1.319  0.0000  0.0001  1.0000
     5 C(13)  Bbb    -0.0289    -3.874    -1.382    -1.292  0.2244  0.9745 -0.0001
              Bcc     0.0583     7.828     2.793     2.611  0.9745 -0.2244  0.0000
 
              Baa    -0.0092    -4.883    -1.742    -1.629 -0.2000  0.6047  0.7709
     6 H(1)   Bbb    -0.0038    -2.004    -0.715    -0.668  0.5281  0.7293 -0.4350
              Bcc     0.0129     6.886     2.457     2.297  0.8253 -0.3201  0.4652
 
              Baa    -0.0092    -4.882    -1.742    -1.629  0.2000 -0.6047  0.7709
     7 H(1)   Bbb    -0.0038    -2.004    -0.715    -0.668  0.5281  0.7293  0.4350
              Bcc     0.0129     6.886     2.457     2.297  0.8253 -0.3201 -0.4652
 
              Baa    -0.0132    -1.776    -0.634    -0.593 -0.3874  0.9219  0.0000
     8 C(13)  Bbb    -0.0127    -1.703    -0.608    -0.568  0.0000  0.0000  1.0000
              Bcc     0.0259     3.480     1.242     1.161  0.9219  0.3874  0.0000
 
              Baa    -0.0031    -1.666    -0.594    -0.556 -0.1663  0.7326  0.6601
     9 H(1)   Bbb    -0.0014    -0.764    -0.272    -0.255  0.6182 -0.4441  0.6486
              Bcc     0.0046     2.429     0.867     0.810  0.7682  0.5159 -0.3790
 
              Baa    -0.0028    -1.490    -0.532    -0.497  0.0000  0.0000  1.0000
    10 H(1)   Bbb    -0.0009    -0.507    -0.181    -0.169  0.1301  0.9915  0.0000
              Bcc     0.0037     1.997     0.712     0.666  0.9915 -0.1301  0.0000
 
              Baa    -0.0031    -1.666    -0.594    -0.556 -0.1663  0.7326 -0.6601
    11 H(1)   Bbb    -0.0014    -0.764    -0.272    -0.255 -0.6182  0.4441  0.6486
              Bcc     0.0046     2.429     0.867     0.810  0.7683  0.5159  0.3790
 
              Baa    -0.0104    -1.389    -0.496    -0.463 -0.6763 -0.1486  0.7215
    12 C(13)  Bbb    -0.0101    -1.354    -0.483    -0.452 -0.5229  0.7868 -0.3281
              Bcc     0.0204     2.743     0.979     0.915  0.5189  0.5991  0.6098
 
              Baa    -0.0036    -1.912    -0.682    -0.638  0.0002 -0.4438  0.8961
    13 H(1)   Bbb    -0.0029    -1.559    -0.556    -0.520  0.8357 -0.4921 -0.2439
              Bcc     0.0065     3.471     1.238     1.158  0.5492  0.7490  0.3707
 
              Baa    -0.0058    -3.081    -1.100    -1.028  0.0679  0.8746 -0.4800
    14 H(1)   Bbb    -0.0051    -2.729    -0.974    -0.910  0.8850 -0.2750 -0.3758
              Bcc     0.0109     5.810     2.073     1.938  0.4607  0.3992  0.7927
 
              Baa    -0.0082    -4.393    -1.567    -1.465  0.0451 -0.5098  0.8591
    15 H(1)   Bbb    -0.0060    -3.192    -1.139    -1.065  0.9903 -0.0901 -0.1055
              Bcc     0.0142     7.585     2.706     2.530  0.1312  0.8556  0.5008
 
              Baa    -0.0104    -1.389    -0.496    -0.463  0.6763  0.1486  0.7215
    16 C(13)  Bbb    -0.0101    -1.354    -0.483    -0.452 -0.5228  0.7868  0.3280
              Bcc     0.0204     2.743     0.979     0.915 -0.5189 -0.5991  0.6098
 
              Baa    -0.0082    -4.393    -1.567    -1.465 -0.0451  0.5098  0.8591
    17 H(1)   Bbb    -0.0060    -3.192    -1.139    -1.065  0.9903 -0.0901  0.1055
              Bcc     0.0142     7.584     2.706     2.530  0.1312  0.8555 -0.5008
 
              Baa    -0.0058    -3.081    -1.100    -1.028  0.0679  0.8747  0.4799
    18 H(1)   Bbb    -0.0051    -2.729    -0.974    -0.910  0.8850 -0.2749  0.3758
              Bcc     0.0109     5.810     2.073     1.938 -0.4607 -0.3992  0.7927
 
              Baa    -0.0036    -1.912    -0.682    -0.638 -0.0002  0.4438  0.8961
    19 H(1)   Bbb    -0.0029    -1.559    -0.556    -0.520  0.8357 -0.4921  0.2440
              Bcc     0.0065     3.471     1.238     1.158  0.5492  0.7489 -0.3708
 

 ---------------------------------------------------------------------------------

 No NMR shielding tensors so no spin-rotation constants.
 Leave Link  601 at Sat Nov  7 02:14:25 2015, MaxMem=   805306368 cpu:         1.3
 (Enter /home/hetanjin/apps/g09D01/g09/l701.exe)
 Compute integral first derivatives.
 ... and contract with generalized density number  0.
 Leave Link  701 at Sat Nov  7 02:14:25 2015, MaxMem=   805306368 cpu:         0.7
 (Enter /home/hetanjin/apps/g09D01/g09/l702.exe)
 L702 exits ... SP integral derivatives will be done elsewhere.
 Leave Link  702 at Sat Nov  7 02:14:25 2015, MaxMem=   805306368 cpu:         0.1
 (Enter /home/hetanjin/apps/g09D01/g09/l703.exe)
 Compute integral first derivatives, UseDBF=F ICtDFT=           0.
 Integral derivatives from FoFJK, PRISM(SPDF).
 Calling FoFJK, ICntrl=      2127 FMM=F ISym2X=0 I1Cent= 0 IOpClX= 1 NMat=1 NMatS=1 NMatT=0.
 FoFJK:  IHMeth= 1 ICntrl=    2127 DoSepK=F KAlg= 0 I1Cent=   0 FoldK=F
 IRaf=         0 NMat=   1 IRICut=       1 DoRegI=T DoRafI=F ISym2E= 0.
 FoFCou: FMM=F IPFlag=           0 FMFlag=      100000 FMFlg1=         800
         NFxFlg=           0 DoJE=F BraDBF=F KetDBF=F FulRan=T
         wScrn=  0.000000 ICntrl=    2127 IOpCl=  1 I1Cent=           0 NGrid=           0
         NMat0=    1 NMatS0=      1 NMatT0=    0 NMatD0=    1 NMtDS0=    0 NMtDT0=    0
 Symmetry not used in FoFCou.
 Leave Link  703 at Sat Nov  7 02:14:35 2015, MaxMem=   805306368 cpu:        35.9
 (Enter /home/hetanjin/apps/g09D01/g09/l716.exe)
 Dipole        =-2.77764751D-01 5.33140438D-02-2.83887272D-06
 ***** Axes restored to original set *****
 -------------------------------------------------------------------
 Center     Atomic                   Forces (Hartrees/Bohr)
 Number     Number              X              Y              Z
 -------------------------------------------------------------------
      1        6          -0.042840757    0.015327485   -0.000000366
      2        1           0.012800957   -0.005787524    0.004106330
      3        1           0.012800925   -0.005787656   -0.004106143
      4        6           0.017940461   -0.007299917    0.000000180
      5        6           0.000729331    0.006431674   -0.000001031
      6        1          -0.000416031   -0.000102214    0.000155561
      7        1          -0.000416004   -0.000101765   -0.000154784
      8        6          -0.000154577   -0.002269598    0.000000306
      9        1           0.000085796    0.000121119   -0.000106363
     10        1           0.000537437    0.000492361   -0.000000036
     11        1           0.000085830    0.000120840    0.000106130
     12        6           0.000136414   -0.001307154   -0.001257161
     13        1          -0.000259328    0.000083051    0.000016693
     14        1           0.000017708    0.000049612    0.000029207
     15        1          -0.000471506    0.000602063    0.000205191
     16        6           0.000135620   -0.001307091    0.001257323
     17        1          -0.000470929    0.000601877   -0.000205211
     18        1           0.000017704    0.000049481   -0.000029132
     19        1          -0.000259050    0.000083354   -0.000016696
 -------------------------------------------------------------------
 Cartesian Forces:  Max     0.042840757 RMS     0.007169581
 Leave Link  716 at Sat Nov  7 02:14:35 2015, MaxMem=   805306368 cpu:         0.1
 (Enter /home/hetanjin/apps/g09D01/g09/l103.exe)

 GradGradGradGradGradGradGradGradGradGradGradGradGradGradGradGradGradGrad
 Berny optimization.
 FormGI is forming the generalized inverse of G from B-inverse, IUseBI=4.
 Internal  Forces:  Max     0.013466417 RMS     0.003222313
 Search for a local minimum.
 Step number   1 out of a maximum of  103
 All quantities printed in internal units (Hartrees-Bohrs-Radians)
 RMS Force = .32223D-02 SwitMx=.10000D-02 MixMth= 1
 Mixed Optimization -- RFO/linear search
 Second derivative matrix not updated -- first step.
 ITU=  0
     Eigenvalues ---    0.00230   0.00230   0.00230   0.00230   0.00316
     Eigenvalues ---    0.03068   0.03545   0.04398   0.04674   0.05293
     Eigenvalues ---    0.05319   0.05319   0.05393   0.05432   0.05447
     Eigenvalues ---    0.05447   0.05522   0.09014   0.12691   0.14927
     Eigenvalues ---    0.15195   0.16000   0.16000   0.16000   0.16000
     Eigenvalues ---    0.16000   0.16000   0.16000   0.16000   0.16000
     Eigenvalues ---    0.16000   0.16000   0.21977   0.27481   0.28370
     Eigenvalues ---    0.28418   0.28418   0.29059   0.33721   0.33721
     Eigenvalues ---    0.33969   0.33969   0.33990   0.33990   0.34017
     Eigenvalues ---    0.34017   0.34112   0.34156   0.34156   0.34166
     Eigenvalues ---    0.34166
 RFO step:  Lambda=-1.35473208D-02 EMin= 2.30000000D-03
 Linear search not attempted -- first point.
 Iteration  1 RMS(Cart)=  0.04703973 RMS(Int)=  0.00850181
 Iteration  2 RMS(Cart)=  0.00673627 RMS(Int)=  0.00571827
 Iteration  3 RMS(Cart)=  0.00009854 RMS(Int)=  0.00571782
 Iteration  4 RMS(Cart)=  0.00000224 RMS(Int)=  0.00571782
 Iteration  5 RMS(Cart)=  0.00000007 RMS(Int)=  0.00571782
 ITry= 1 IFail=0 DXMaxC= 2.46D-01 DCOld= 1.00D+10 DXMaxT= 3.00D-01 DXLimC= 3.00D+00 Rises=F
 Variable       Old X    -DE/DX   Delta X   Delta X   Delta X     New X
                                 (Linear)    (Quad)   (Total)
    R1        2.07346  -0.00038   0.00000  -0.00107  -0.00107   2.07239
    R2        2.07346  -0.00038   0.00000  -0.00107  -0.00107   2.07239
    R3        2.91336  -0.01080   0.00000  -0.03634  -0.03634   2.87701
    R4        2.93287   0.00211   0.00000   0.00731   0.00731   2.94018
    R5        2.91234   0.00111   0.00000   0.00374   0.00374   2.91609
    R6        2.91234   0.00112   0.00000   0.00375   0.00375   2.91609
    R7        2.07803  -0.00019   0.00000  -0.00054  -0.00054   2.07749
    R8        2.07803  -0.00019   0.00000  -0.00054  -0.00054   2.07749
    R9        2.89880   0.00032   0.00000   0.00104   0.00104   2.89985
   R10        2.07051  -0.00016   0.00000  -0.00046  -0.00046   2.07005
   R11        2.07142  -0.00011   0.00000  -0.00032  -0.00032   2.07110
   R12        2.07051  -0.00016   0.00000  -0.00046  -0.00046   2.07005
   R13        2.07067   0.00013   0.00000   0.00036   0.00036   2.07103
   R14        2.07382   0.00000   0.00000   0.00000   0.00000   2.07382
   R15        2.07301  -0.00071   0.00000  -0.00200  -0.00200   2.07100
   R16        2.07301  -0.00071   0.00000  -0.00200  -0.00200   2.07100
   R17        2.07382   0.00000   0.00000   0.00000   0.00000   2.07382
   R18        2.07067   0.00013   0.00000   0.00036   0.00036   2.07103
    A1        1.87988  -0.00074   0.00000   0.12276   0.08759   1.96747
    A2        1.94072   0.01347   0.00000   0.14503   0.11703   2.05775
    A3        1.94072   0.01347   0.00000   0.14503   0.11703   2.05775
    A4        1.88414  -0.00247   0.00000  -0.02437  -0.02434   1.85980
    A5        1.89923   0.00100   0.00000   0.00796   0.00788   1.90712
    A6        1.89923   0.00100   0.00000   0.00796   0.00788   1.90711
    A7        1.93449   0.00062   0.00000   0.00229   0.00230   1.93679
    A8        1.93449   0.00062   0.00000   0.00229   0.00230   1.93679
    A9        1.91142  -0.00076   0.00000   0.00380   0.00373   1.91515
   A10        1.88615   0.00108   0.00000   0.00560   0.00558   1.89173
   A11        1.88616   0.00108   0.00000   0.00560   0.00558   1.89173
   A12        2.04055  -0.00266   0.00000  -0.01221  -0.01221   2.02834
   A13        1.84789  -0.00038   0.00000   0.00134   0.00131   1.84921
   A14        1.89691   0.00053   0.00000   0.00044   0.00045   1.89737
   A15        1.89691   0.00053   0.00000   0.00044   0.00045   1.89737
   A16        1.95529   0.00009   0.00000   0.00080   0.00080   1.95608
   A17        1.92445  -0.00103   0.00000  -0.00655  -0.00655   1.91790
   A18        1.95528   0.00009   0.00000   0.00080   0.00080   1.95608
   A19        1.87221   0.00043   0.00000   0.00191   0.00190   1.87412
   A20        1.88042   0.00006   0.00000   0.00139   0.00139   1.88180
   A21        1.87221   0.00043   0.00000   0.00191   0.00191   1.87412
   A22        1.95325  -0.00008   0.00000  -0.00017  -0.00017   1.95308
   A23        1.94002  -0.00002   0.00000  -0.00042  -0.00042   1.93960
   A24        1.93250  -0.00039   0.00000  -0.00222  -0.00222   1.93027
   A25        1.88195   0.00004   0.00000   0.00020   0.00020   1.88215
   A26        1.87429   0.00034   0.00000   0.00253   0.00253   1.87682
   A27        1.87869   0.00014   0.00000   0.00026   0.00026   1.87894
   A28        1.93250  -0.00039   0.00000  -0.00222  -0.00223   1.93027
   A29        1.94002  -0.00002   0.00000  -0.00042  -0.00042   1.93960
   A30        1.95325  -0.00008   0.00000  -0.00017  -0.00017   1.95308
   A31        1.87869   0.00014   0.00000   0.00026   0.00026   1.87894
   A32        1.87429   0.00034   0.00000   0.00253   0.00253   1.87682
   A33        1.88195   0.00004   0.00000   0.00020   0.00020   1.88215
    D1        1.04736   0.00858   0.00000   0.17513   0.18140   1.22877
    D2       -3.13510   0.00846   0.00000   0.16821   0.17446  -2.96064
    D3       -1.05336   0.00870   0.00000   0.18205   0.18835  -0.86501
    D4       -1.04737  -0.00858   0.00000  -0.17513  -0.18140  -1.22878
    D5        1.05335  -0.00870   0.00000  -0.18205  -0.18835   0.86500
    D6        3.13509  -0.00846   0.00000  -0.16821  -0.17446   2.96063
    D7        0.99614   0.00032   0.00000   0.00360   0.00362   0.99975
    D8       -0.99615  -0.00032   0.00000  -0.00360  -0.00362  -0.99977
    D9        3.14159   0.00000   0.00000   0.00000   0.00000   3.14159
   D10       -1.08232   0.00026   0.00000   0.00758   0.00758  -1.07474
   D11       -3.07460  -0.00038   0.00000   0.00038   0.00034  -3.07426
   D12        1.06313  -0.00006   0.00000   0.00398   0.00396   1.06709
   D13        3.07459   0.00038   0.00000  -0.00038  -0.00034   3.07425
   D14        1.08231  -0.00026   0.00000  -0.00758  -0.00758   1.07473
   D15       -1.06314   0.00006   0.00000  -0.00398  -0.00396  -1.06711
   D16        3.09341   0.00118   0.00000   0.01467   0.01468   3.10809
   D17       -1.08437   0.00117   0.00000   0.01451   0.01452  -1.06985
   D18        1.00293   0.00108   0.00000   0.01309   0.01310   1.01603
   D19       -1.12043  -0.00086   0.00000  -0.00888  -0.00889  -1.12932
   D20        0.98498  -0.00087   0.00000  -0.00904  -0.00905   0.97592
   D21        3.07227  -0.00096   0.00000  -0.01046  -0.01047   3.06180
   D22        1.01930  -0.00018   0.00000  -0.00190  -0.00190   1.01740
   D23        3.12471  -0.00019   0.00000  -0.00206  -0.00206   3.12265
   D24       -1.07118  -0.00028   0.00000  -0.00347  -0.00347  -1.07466
   D25       -1.00294  -0.00108   0.00000  -0.01309  -0.01310  -1.01604
   D26        1.08436  -0.00117   0.00000  -0.01451  -0.01452   1.06984
   D27       -3.09342  -0.00118   0.00000  -0.01466  -0.01468  -3.10810
   D28       -3.07228   0.00096   0.00000   0.01046   0.01047  -3.06181
   D29       -0.98499   0.00087   0.00000   0.00904   0.00905  -0.97593
   D30        1.12042   0.00086   0.00000   0.00888   0.00890   1.12932
   D31        1.07117   0.00028   0.00000   0.00348   0.00348   1.07465
   D32       -3.12472   0.00019   0.00000   0.00206   0.00206  -3.12266
   D33       -1.01931   0.00018   0.00000   0.00190   0.00190  -1.01741
   D34        1.05782   0.00010   0.00000   0.00148   0.00148   1.05930
   D35        3.14158   0.00000   0.00000   0.00000   0.00000   3.14158
   D36       -1.05785  -0.00010   0.00000  -0.00147  -0.00147  -1.05932
   D37       -3.08547   0.00004   0.00000   0.00045   0.00046  -3.08501
   D38       -1.00171  -0.00006   0.00000  -0.00102  -0.00101  -1.00272
   D39        1.08205  -0.00015   0.00000  -0.00250  -0.00249   1.07956
   D40       -1.08208   0.00015   0.00000   0.00250   0.00249  -1.07959
   D41        1.00168   0.00006   0.00000   0.00102   0.00102   1.00270
   D42        3.08544  -0.00004   0.00000  -0.00045  -0.00046   3.08498
         Item               Value     Threshold  Converged?
 Maximum Force            0.013466     0.000015     NO 
 RMS     Force            0.003222     0.000010     NO 
 Maximum Displacement     0.245842     0.000060     NO 
 RMS     Displacement     0.044222     0.000040     NO 
 Predicted change in Energy=-9.784180D-03
 Lowest energy point so far.  Saving SCF results.
 GradGradGradGradGradGradGradGradGradGradGradGradGradGradGradGradGradGrad

 Leave Link  103 at Sat Nov  7 02:14:38 2015, MaxMem=   805306368 cpu:         7.5
 (Enter /home/hetanjin/apps/g09D01/g09/l202.exe)
                          Input orientation:                          
 ---------------------------------------------------------------------
 Center     Atomic      Atomic             Coordinates (Angstroms)
 Number     Number       Type             X           Y           Z
 ---------------------------------------------------------------------
      1          6           0        1.556193    1.019616   -0.000047
      2          1           0        1.723766    1.603547    0.912975
      3          1           0        1.723765    1.603464   -0.913124
      4          6           0        0.418326    0.008125    0.000000
      5          6           0       -0.903914    0.828142   -0.000030
      6          1           0       -0.901454    1.490085   -0.877763
      7          1           0       -0.901453    1.490151    0.877653
      8          6           0       -2.205573    0.015449   -0.000001
      9          1           0       -2.291634   -0.624032    0.885217
     10          1           0       -3.067643    0.692215   -0.000013
     11          1           0       -2.291644   -0.624078   -0.885184
     12          6           0        0.521087   -0.874040   -1.261930
     13          1           0       -0.260368   -1.641963   -1.288671
     14          1           0        0.431319   -0.271123   -2.174490
     15          1           0        1.489099   -1.386718   -1.296151
     16          6           0        0.521097   -0.873931    1.262005
     17          1           0        1.489106   -1.386614    1.296258
     18          1           0        0.431344   -0.270936    2.174513
     19          1           0       -0.260363   -1.641847    1.288822
 ---------------------------------------------------------------------
                    Distance matrix (angstroms):
                    1          2          3          4          5
     1  C    0.000000
     2  H    1.096662   0.000000
     3  H    1.096662   1.826099   0.000000
     4  C    1.522450   2.254566   2.254566   0.000000
     5  C    2.467547   2.887825   2.887829   1.555875   0.000000
     6  H    2.651745   3.179842   2.627904   2.169906   1.099359
     7  H    2.651751   2.627905   3.179857   2.169906   1.099359
     8  C    3.893486   4.335354   4.335353   2.623910   1.534532
     9  H    4.276802   4.591984   4.931449   2.920122   2.195049
    10  H    4.635412   4.962023   4.962029   3.552458   2.167994
    11  H    4.276803   4.931451   4.591974   2.920132   2.195048
    12  C    2.499945   3.509286   2.775990   1.543127   2.553515
    13  H    3.470511   4.395153   3.822383   2.200929   2.859399
    14  H    2.767589   3.836307   2.602986   2.192385   2.778400
    15  H    2.734014   3.725184   3.023734   2.184525   3.508853
    16  C    2.499944   2.775993   3.509285   1.543128   2.553516
    17  H    2.734017   3.023745   3.725184   2.184525   3.508853
    18  H    2.767584   2.602983   3.836303   2.192385   2.778403
    19  H    3.470511   3.822383   4.395153   2.200929   2.859396
[...]
 556,-0.26982020,0.00808049,0.01140323,-0.01489589,-0.08225631,-0.10906
 772,0.27967522,-0.13039173,-0.08316152,0.00000368,-0.00083005,-0.00236
 056,0.00342196,-0.00082995,-0.00236076,-0.00342175,0.42404824,-0.08398
 318,-0.12005714,0.00000170,-0.00746284,-0.00388079,0.00176342,-0.00746
 118,-0.00387969,-0.00176287,0.04038153,0.47620858,0.00000368,0.0000016
 9,-0.08603865,-0.01984216,-0.01486793,0.00209469,0.01984280,0.01486845
 ,0.00209348,-0.00000145,0.00000021,0.48440393,-0.03712660,-0.00135507,
 0.00000017,0.00118344,-0.00011632,0.00010466,0.00118344,-0.00011632,-0
 .00010466,-0.11124966,0.03749117,-0.00000144,0.41965861,-0.01307559,0.
 00985874,-0.00000034,-0.00026712,-0.00127299,0.00016387,-0.00026711,-0
 .00127299,-0.00016377,0.01970752,-0.09234568,0.00000066,0.02062447,0.5
 1550552,0.00000064,-0.00000039,0.00019635,-0.00026467,-0.00022540,-0.0
 0016199,0.00026470,0.00022549,-0.00016200,-0.00000069,0.00000059,-0.07
 536263,-0.00000052,0.00000331,0.59887260,0.00126164,0.00099112,-0.0012
 4181,-0.00019870,0.00006688,0.00009271,-0.00041974,-0.00007016,0.00028
 947,-0.00299404,0.01637963,-0.02281441,-0.04675417,0.00099363,-0.00046
 761,0.05879622,-0.00153861,0.00008593,-0.00076150,-0.00001700,0.000081
 86,-0.00007763,0.00046378,0.00032563,-0.00007734,0.00207502,-0.0114496
 8,0.01456905,0.00061677,-0.13842334,0.12016763,-0.00017805,0.14930168,
 0.00071019,-0.00035378,0.00024882,-0.00005114,0.00005995,0.00005880,-0
 .00047128,-0.00006278,0.00017149,-0.00037972,-0.00070140,-0.00098097,-
 0.00095599,0.11993189,-0.21528831,0.00100114,-0.13299946,0.23131135,0.
 00126167,0.00099121,0.00124170,-0.00041974,-0.00007019,-0.00028946,-0.
 00019870,0.00006687,-0.00009271,-0.00299394,0.01638142,0.02281312,-0.0
 4675421,0.00099326,0.00046701,-0.00041650,-0.00043121,-0.00035887,0.05
 879615,-0.00153864,0.00008601,0.00076153,0.00046382,0.00032564,0.00007
 733,-0.00001699,0.00008186,0.00007762,0.00207500,-0.01145079,-0.014568
 23,0.00061644,-0.13844216,-0.12017368,-0.00043113,0.01273204,0.0158379
 0,-0.00017771,0.14932256,-0.00071006,0.00035379,0.00024872,0.00047125,
 0.00006277,0.00017147,0.00005114,-0.00005995,0.00005881,0.00037955,0.0
 0070216,-0.00097996,0.00095542,-0.11993796,-0.21526946,0.00035884,-0.0
 1584061,-0.02186114,-0.00100057,0.13300589,0.23129049,-0.00362988,0.00
 208343,-0.00000007,-0.00019862,-0.00021564,-0.00001389,-0.00019862,-0.
 00021564,0.00001391,-0.02568687,-0.01269162,0.00000056,-0.14928101,-0.
 05238440,0.00000216,-0.00200698,-0.00106032,-0.00010710,-0.00200702,-0
 .00106035,0.00010720,0.49493772,0.00172586,-0.00140071,0.00000009,0.00
 012306,0.00041858,-0.00000878,0.00012304,0.00041858,0.00000875,0.01348
 030,0.01302689,-0.00000053,-0.04749158,-0.11674057,0.00000139,-0.01811
 389,-0.01197522,-0.00094058,-0.01811577,-0.01197638,0.00094167,-0.0454
 6095,0.54951583,-0.00000005,0.00000008,0.00084477,0.00030374,0.0000098
 5,0.00006217,-0.00030375,-0.00000987,0.00006217,-0.00000049,-0.0000004
 8,0.00027826,0.00000195,0.00000141,-0.08272594,0.02401644,0.01586001,0
 .00104920,-0.02401501,-0.01585897,0.00105044,0.00000183,0.00000109,0.5
 7715059,0.00003048,0.00016628,-0.00031126,0.00001861,-0.00003806,-0.00
 001939,0.00020267,0.00008350,-0.00005353,0.00124486,-0.00006864,0.0007
 7977,-0.00060816,-0.01682383,0.02486122,-0.00487366,-0.00363714,-0.000
 15710,0.00113914,0.00078135,-0.00047276,-0.04934311,-0.00794594,0.0113
 6012,0.05293585,-0.00003314,0.00022603,-0.00004579,0.00000228,-0.00005
 084,-0.00001908,0.00009246,-0.00001741,-0.00005222,0.00066187,0.000094
 45,-0.00012506,-0.00073036,-0.01127759,0.01510231,-0.00363640,-0.00125
 962,-0.00059209,0.00055714,0.00019833,-0.00019485,-0.00831495,-0.13786
 940,0.12291557,0.01047005,0.14813730,0.00022630,-0.00020296,0.00007153
 ,-0.00001436,0.00003954,-0.00000323,-0.00005298,0.00000013,0.00003082,
 -0.00028300,0.00072727,-0.00029685,0.00113228,-0.00100196,0.00142181,-
 0.00047501,-0.00028073,0.00163925,0.00055661,0.00011085,0.00079601,0.0
 1181627,0.12283097,-0.22448345,-0.01160071,-0.13740376,0.24093432,-0.0
 0112503,0.00059836,-0.00000002,-0.00006016,-0.00016761,-0.00000208,-0.
 00006016,-0.00016761,0.00000209,-0.00226203,-0.00486101,0.00000020,-0.
 02338820,0.01743879,-0.00000067,0.00100449,0.00007101,0.00063153,0.001
 00448,0.00007096,-0.00063154,-0.21239572,0.12823052,-0.00000501,0.0021
 2670,-0.00152938,-0.00076335,0.23221445,-0.00043322,0.00058053,-0.0000
 0002,0.00001399,-0.00009239,0.00001135,0.00001399,-0.00009239,-0.00001
 135,-0.00338124,-0.00246946,0.00000010,-0.01781462,0.01210833,-0.00000
 050,0.00074449,0.00090785,-0.00002996,0.00074447,0.00090787,0.00002989
 ,0.12827146,-0.14586875,0.00000377,0.01451194,-0.01191316,-0.00112333,
 -0.13783898,0.15761828,0.00000002,-0.00000002,0.00016356,0.00002126,0.
 00004002,0.00000134,-0.00002126,-0.00004001,0.00000135,0.00000014,0.00
 000009,-0.00004073,0.00000073,-0.00000053,-0.00092706,0.00023980,-0.00
 032619,0.00006807,-0.00023986,0.00032612,0.00006804,-0.00000502,0.0000
 0378,-0.04926748,-0.02283314,0.01689148,0.00073665,0.00000538,-0.00000
 429,0.04801512,0.00003048,0.00016631,0.00031125,0.00020267,0.00008351,
 0.00005352,0.00001861,-0.00003806,0.00001939,0.00124487,-0.00006870,-0
 .00077977,-0.00060821,-0.01682580,-0.02485987,0.00113913,0.00078138,0.
 00047269,-0.00487366,-0.00363712,0.00015740,-0.04934314,-0.00794703,-0
 .01135972,-0.00092982,0.00114628,0.00062273,0.00212673,0.01451377,0.02
 283197,0.05293595,-0.00003316,0.00022605,0.00004577,0.00009247,-0.0000
 1741,0.00005223,0.00000228,-0.00005084,0.00001909,0.00066190,0.0000943
 9,0.00012503,-0.00073048,-0.01127872,-0.01510130,0.00055710,0.00019834
 ,0.00019490,-0.00363635,-0.00125956,0.00059233,-0.00831610,-0.13788907
 ,-0.12292245,0.00114625,0.01335707,0.01641966,-0.00152934,-0.01191443,
 -0.01689046,0.01047115,0.14815931,-0.00022630,0.00020295,0.00007151,0.
 00005297,-0.00000012,0.00003082,0.00001436,-0.00003953,-0.00000323,0.0
 0028294,-0.00072730,-0.00029680,-0.00113223,0.00100300,0.00142297,-0.0
 0055666,-0.00011080,0.00079600,0.00047532,0.00028096,0.00163918,-0.011
 81588,-0.12283784,-0.22446368,-0.00062286,-0.01642241,-0.02102444,0.00
 076347,0.00112432,0.00073788,0.01160013,0.13741114,0.24091223,-0.00277
 839,-0.01576865,-0.02195525,-0.00354377,-0.00336003,-0.00072811,0.0010
 7941,0.00027816,-0.00021155,-0.07444871,0.00174339,0.00554306,-0.00390
 857,0.02030447,0.02501334,0.00091535,-0.00084116,0.00026792,-0.0055751
 7,0.00352730,0.00070255,0.00051512,0.00024409,0.00050207,-0.00018929,-
 0.00003857,0.00025999,0.00033269,-0.00004820,0.00004599,-0.00078910,0.
 00044466,0.00017852,0.58141266,-0.00536308,-0.01861233,-0.02192142,-0.
 00198166,-0.00217664,-0.00003390,0.00083446,0.00098614,-0.00079039,0.0
 0468064,-0.10922401,-0.04234726,0.00711291,-0.01227273,-0.01527231,-0.
 00072445,0.00023480,-0.00062442,0.00239678,-0.00089184,0.00006034,0.00
 070827,0.00054957,0.00121257,0.00008086,-0.00000066,-0.00008679,-0.000
 31637,-0.00054236,-0.00037056,-0.00013479,-0.00015854,-0.00106931,0.00
 692236,0.54385969,-0.00554020,-0.00786472,-0.00339719,0.00171519,0.000
 52615,0.00067279,0.00074875,0.00197709,0.00093001,0.00724064,-0.040765
 24,-0.13853089,0.00444984,-0.00433983,-0.00257127,-0.00100764,0.001396
 62,0.00075034,-0.00103199,0.00129509,0.00074445,-0.00002659,0.00061631
 ,0.00007127,-0.00002901,-0.00009433,0.00004307,-0.00044877,-0.00022071
 ,0.00014574,0.00013863,-0.00027246,0.00002074,0.00942904,-0.05679952,0
 .49640347,0.00045148,-0.00018366,-0.00018494,0.00040434,-0.00013244,0.
 00004388,-0.00009635,0.00034350,0.00000438,0.00250732,0.00249315,-0.00
 038012,-0.00011408,0.00031473,-0.00051208,-0.00005469,0.00007691,0.000
 01376,0.00013121,-0.00023004,-0.00006031,-0.00101145,0.00039761,0.0001
 8176,0.00003526,-0.00004557,-0.00004792,0.00009302,0.00019731,0.000088
 02,-0.00133859,0.00100118,0.00087044,-0.18386219,-0.13174840,-0.002338
 66,0.19974006,0.00030921,-0.00113370,-0.00424051,-0.00069127,-0.000823
 09,-0.00016582,0.00027834,0.00024962,0.00007623,-0.01326454,-0.0132334
 7,0.00136343,-0.00107987,0.00005443,0.00039956,0.00005799,-0.00002320,
 -0.00010367,0.00016735,0.00020982,0.00001208,-0.00030703,-0.00037549,-
 0.00090605,0.00005267,0.00007169,0.00009627,0.00009171,0.00043246,0.00
 043570,0.00111792,0.00041226,0.00058891,-0.13044314,-0.17729961,-0.002
 07039,0.14497679,0.19054179,0.00060853,-0.00194347,-0.00490413,-0.0011
 4812,-0.00121814,0.00019948,-0.00002993,-0.00026748,0.00019922,-0.0202
 8596,-0.01889375,-0.00025518,-0.00030630,0.00097593,0.00085682,0.00010
 727,-0.00004984,0.00000746,-0.00012993,0.00019356,0.00000986,0.0004359
 5,-0.00010663,0.00019412,0.00012136,-0.00001099,-0.00017105,0.00005247
 ,0.00015812,-0.00000491,0.00050311,-0.00019054,0.00013964,-0.00209683,
 -0.00136775,-0.04942048,0.00171165,0.00418728,0.05128065,0.00026834,0.
 00048209,-0.00092438,-0.00010983,-0.00000406,0.00022049,-0.00012699,-0
 .00033399,0.00001755,-0.00148859,-0.00161250,0.00237882,0.00033310,-0.
 00067647,0.00094465,0.00008198,0.00027863,-0.00001626,-0.00000457,-0.0
 0003846,-0.00016501,-0.00005710,0.00009369,-0.00001194,0.00010152,-0.0
 0001048,-0.00016045,-0.00002458,0.00002791,-0.00003264,-0.00006190,-0.
 00017595,0.00001748,-0.05169714,0.01206005,-0.01834129,0.00286944,-0.0
 1311331,0.02096921,0.05015618,0.00032644,0.00099267,-0.00048821,0.0001
 9538,0.00015743,0.00013484,-0.00004675,0.00006747,0.00022679,-0.001878
 58,0.01067597,-0.01583021,-0.00031994,0.00110907,-0.00020329,-0.000034
 16,-0.00002738,0.00020335,-0.00027828,0.00014802,0.00009973,-0.0000420
 1,0.00008942,0.00006950,-0.00002012,-0.00007310,-0.00010626,-0.0000088
 9,0.00005660,0.00001979,-0.00000929,-0.00012119,0.00007895,0.01207804,
 -0.13149704,0.12060152,0.00360272,-0.01262912,0.01840269,-0.01386084,0
 .14083298,0.00126886,0.00137497,0.00060461,-0.00010233,-0.00015432,0.0
 0036368,-0.00079018,-0.00068542,0.00042103,-0.00242855,0.01612918,-0.0
 2259199,-0.00091364,0.00165108,0.00055051,0.00063478,-0.00099496,0.000
 49515,-0.00021151,-0.00017876,0.00046587,0.00031474,-0.00021144,-0.000
 00511,-0.00020449,-0.00005613,0.00014761,0.00008521,0.00000746,0.00002
 065,0.00012525,0.00015729,-0.00011316,-0.01832942,0.11979895,-0.223766
 78,0.00061965,-0.00072071,0.00130724,0.01982385,-0.13072731,0.24554296
 ,0.00058533,-0.00094853,-0.00030741,0.00020313,0.00008832,0.00000550,-
 0.00000208,0.00025697,0.00004952,-0.00121982,0.00035776,-0.00039854,0.
 00056199,0.00000142,0.00068693,0.00002017,-0.00008152,-0.00009010,-0.0
 0005196,0.00016274,0.00003219,0.00013003,-0.00003917,-0.00036012,-0.00
 002233,-0.00001071,0.00010455,0.00000610,0.00014997,0.00015214,0.00032
 083,0.00014973,0.00025448,-0.25781154,0.10705641,0.00413688,-0.0201218
 1,0.01110925,-0.00014545,-0.00129737,0.00003995,-0.00037587,0.27823552
 ,0.00079022,0.00116726,0.00019410,0.00000266,-0.00003899,0.00013280,-0
 .00000810,-0.00045885,0.00021594,0.01657314,-0.01016872,0.00018260,-0.
 00121011,-0.00210102,-0.00400167,-0.00031696,0.00037434,-0.00000677,0.
 00142854,-0.00055000,-0.00035890,-0.00067668,-0.00009337,-0.00026365,0
 .00008043,0.00005108,-0.00002716,0.00007568,0.00016717,0.00017570,0.00
 018664,0.00019332,0.00039314,0.10636446,-0.10324494,-0.00093465,-0.021
 32806,0.01238959,0.00030709,0.01662129,-0.00867011,-0.00089915,-0.1177
 9593,0.11011129,0.00067838,0.00104342,0.00084860,0.00009827,0.00006189
 ,-0.00001090,-0.00014900,-0.00008340,0.00001274,0.02451907,-0.01249153
 ,-0.00105418,-0.00088898,-0.00271506,-0.00484335,-0.00001220,-0.000276
 13,0.00018263,0.00153828,-0.00111160,0.00013168,-0.00049009,-0.0002444
 5,-0.00003881,0.00002526,0.00005295,0.00001234,0.00004588,0.00005960,0
 .00006013,0.00007642,0.00025128,0.00009840,0.00336579,-0.00055851,-0.0
 4870703,0.00032180,0.00023138,-0.00084855,-0.02540269,0.01157304,0.001
 36511,-0.00404237,0.00415776,0.05160694,-0.00277819,-0.01576674,0.0219
 5655,0.00107941,0.00027816,0.00021152,-0.00354377,-0.00335997,0.000728
 42,-0.07444882,0.00174322,-0.00554367,-0.00390875,0.02030243,-0.025015
 01,-0.00557517,0.00352723,-0.00070281,0.00091536,-0.00084120,-0.000267
 86,0.00051514,0.00024404,-0.00050209,-0.00078907,0.00044463,-0.0001785
 3,0.00033269,-0.00004820,-0.00004598,-0.00018929,-0.00003859,-0.000259
 99,0.00047734,-0.00156435,0.00124485,-0.00001012,0.00016585,-0.0010135
 8,-0.00000334,0.00022857,0.00061231,-0.00011523,-0.00023699,0.00114343
 ,0.58141247,-0.00536246,-0.01860985,0.02192274,0.00083441,0.00098605,0
 .00079037,-0.00198180,-0.00217668,0.00003415,0.00468033,-0.10921708,0.
 04234478,0.00711262,-0.01227109,0.01527304,0.00239687,-0.00089195,-0.0
 0006021,-0.00072435,0.00023474,0.00062447,0.00070826,0.00054943,-0.001
 21261,-0.00013481,-0.00015843,0.00106931,-0.00031633,-0.00054230,0.000
 37061,0.00008086,-0.00000065,0.00008680,-0.00156454,0.01148891,-0.0135
 3670,-0.00006709,0.00038135,-0.00083185,0.00024126,-0.00194185,-0.0054
 0687,-0.00019384,0.00036152,-0.00039850,0.00692208,0.54386920,0.005540
 63,0.00786610,-0.00339986,-0.00074881,-0.00197709,0.00093012,-0.001714
 99,-0.00052589,0.00067284,-0.00724152,0.04076279,-0.13853772,-0.004450
 40,0.00434048,-0.00257270,0.00103183,-0.00129498,0.00074455,0.00100771
 ,-0.00139658,0.00075040,0.00002653,-0.00061636,0.00007142,-0.00013861,
 0.00027247,0.00002062,0.00044879,0.00022077,0.00014569,0.00002901,0.00
 009433,0.00004305,-0.00124493,0.01353302,-0.03270302,0.00022291,0.0012
 8564,0.00160996,0.00046467,-0.00277976,-0.00371553,-0.00034795,0.00100
 841,0.00142093,-0.00943026,0.05679552,0.49639410,0.00058533,-0.0009485
 2,0.00030749,-0.00000208,0.00025696,-0.00004954,0.00020313,0.00008831,
 -0.00000551,-0.00121999,0.00035789,0.00039852,0.00056200,0.00000139,-0
 .00068698,-0.00005197,0.00016274,-0.00003221,0.00002018,-0.00008151,0.
 00009011,0.00013004,-0.00003915,0.00036012,0.00032082,0.00014971,-0.00
 025448,0.00000610,0.00014995,-0.00015215,-0.00002233,-0.00001072,-0.00
 010455,-0.00011524,-0.00019381,0.00034798,-0.00009779,0.00008413,-0.00
 002949,0.00027917,-0.00018870,-0.00009545,0.00039767,-0.00019829,-0.00
 052067,-0.25781212,0.10705569,-0.00414462,0.27823615,0.00079016,0.0011
 6716,-0.00019413,-0.00000809,-0.00045886,-0.00021590,0.00000265,-0.000
 03901,-0.00013280,0.01657111,-0.01016766,-0.00018194,-0.00121000,-0.00
 210047,0.00400144,0.00142841,-0.00054988,0.00035895,-0.00031697,0.0003
 7436,0.00000677,-0.00067663,-0.00009334,0.00026366,0.00018664,0.000193
 27,-0.00039315,0.00007567,0.00016715,-0.00017570,0.00008043,0.00005108
 ,0.00002715,-0.00023710,0.00036146,-0.00100831,-0.00011851,0.00004187,
 0.00003620,-0.00023338,-0.00008594,-0.00007646,-0.00019824,0.00055449,
 0.00031578,0.10636379,-0.10324427,0.00093857,-0.11779520,0.11011003,-0
 .00067845,-0.00104344,0.00084871,0.00014900,0.00008344,0.00001275,-0.0
 0009827,-0.00006189,-0.00001089,-0.02452048,0.01249223,-0.00105507,0.0
 0088905,0.00271483,-0.00484390,-0.00153840,0.00111165,0.00013157,0.000
 01223,0.00027611,0.00018261,0.00049014,0.00024445,-0.00003886,-0.00007
 644,-0.00025129,0.00009845,-0.00004588,-0.00005961,0.00006015,-0.00002
 527,-0.00005295,0.00001234,-0.00114340,0.00039859,0.00142098,-0.000002
 40,-0.00004379,-0.00011503,0.00030903,-0.00008826,0.00033725,0.0005206
 8,-0.00031587,-0.00045888,-0.00337347,0.00056243,-0.04870711,0.0040509
 0,-0.00416195,0.05160758,0.00026834,0.00048216,0.00092434,-0.00012699,
 -0.00033399,-0.00001752,-0.00010983,-0.00000408,-0.00022048,-0.0014885
 8,-0.00161281,-0.00237885,0.00033310,-0.00067656,-0.00094460,-0.000004
 56,-0.00003845,0.00016501,0.00008198,0.00027864,0.00001624,-0.00005711
 ,0.00009370,0.00001194,-0.00006190,-0.00017594,-0.00001746,-0.00002458
 ,0.00002791,0.00003264,0.00010152,-0.00001046,0.00016044,-0.00000335,0
 .00024126,-0.00046473,0.00014048,0.00028965,0.00024120,0.00064121,-0.0
 0003514,-0.00015015,0.00027917,-0.00023341,-0.00030900,-0.05169699,0.0
 1206109,0.01833962,-0.00129727,0.01662343,0.02540135,0.05015603,0.0003
 2634,0.00099259,0.00048817,-0.00004668,0.00006751,-0.00022676,0.000195
 39,0.00015743,-0.00013483,-0.00187830,0.01067593,0.01582745,-0.0003198
 7,0.00110896,0.00020326,-0.00027827,0.00014803,-0.00009970,-0.00003421
 ,-0.00002732,-0.00020330,-0.00004203,0.00008943,-0.00006951,-0.0000093
 0,-0.00012121,-0.00007895,-0.00000890,0.00005660,-0.00001979,-0.000020
 10,-0.00007308,0.00010628,0.00022853,-0.00194117,0.00277961,0.00025159
 ,0.00004840,0.00016207,-0.00003512,0.00086771,0.00102462,-0.00018870,-
 0.00008592,0.00008830,0.01207907,-0.13151700,-0.12060922,0.00003993,-0
 .00867096,-0.01157214,-0.01386198,0.14085469,-0.00126888,-0.00137500,0
 .00060469,0.00079018,0.00068545,0.00042098,0.00010231,0.00015434,0.000
 36368,0.00242860,-0.01613193,-0.02259197,0.00091368,-0.00165113,0.0005
 5062,0.00021153,0.00017878,0.00046586,-0.00063478,0.00099500,0.0004950
 9,-0.00031473,0.00021143,-0.00000512,-0.00012525,-0.00015729,-0.000113
 13,-0.00008521,-0.00000746,0.00002065,0.00020449,0.00005614,0.00014759
 ,-0.00061235,0.00540672,-0.00371621,-0.00011695,0.00003206,0.00034573,
 0.00015013,-0.00102485,-0.00177483,0.00009546,0.00007649,0.00033724,0.
 01832774,-0.11980665,-0.22374697,0.00037588,0.00089989,0.00136585,-0.0
 1982190,0.13073605,0.24552141,0.00045148,-0.00018363,0.00018491,-0.000
 09635,0.00034350,-0.00000441,0.00040435,-0.00013244,-0.00004387,0.0025
 0747,0.00249333,0.00037990,-0.00011406,0.00031477,0.00051206,0.0001312
 1,-0.00023004,0.00006033,-0.00005469,0.00007691,-0.00001377,-0.0010114
 2,0.00039757,-0.00018178,-0.00133855,0.00100108,-0.00087049,0.00009302
 ,0.00019730,-0.00008803,0.00003525,-0.00004557,0.00004792,-0.00001011,
 -0.00006710,-0.00022289,0.00033447,0.00019830,0.00043483,0.00014048,0.
 00025160,0.00011693,-0.00009779,-0.00011851,0.00000241,-0.18386155,-0.
 13174823,0.00235038,-0.02012179,-0.02132818,-0.00031991,0.00286934,0.0
 0360261,-0.00061996,0.19973925,0.00030919,-0.00113318,0.00424019,0.000
 27834,0.00024963,-0.00007624,-0.00069117,-0.00082297,0.00016591,-0.013
 26285,-0.01323202,-0.00136228,-0.00107983,0.00005431,-0.00039948,0.000
 16736,0.00020980,-0.00001210,0.00005799,-0.00002319,0.00010367,-0.0003
 0707,-0.00037541,0.00090609,0.00111786,0.00041223,-0.00058894,0.000091
 70,0.00043241,-0.00043573,0.00005266,0.00007168,-0.00009629,0.00016592
 ,0.00038132,-0.00128554,0.00019827,0.00068444,0.00045751,0.00028963,0.
 00004839,-0.00003204,0.00008413,0.00004187,0.00004377,-0.13044302,-0.1
 7730003,0.00208178,0.01110918,0.01238952,-0.00023254,-0.01311502,-0.01
 263062,0.00072194,0.14497672,0.19054184,-0.00060859,0.00194316,-0.0049
 0465,0.00002991,0.00026747,0.00019920,0.00114817,0.00121822,0.00019935
 ,0.02028702,0.01889486,-0.00025676,0.00030639,-0.00097586,0.00085692,0
 .00012992,-0.00019357,0.00000987,-0.00010728,0.00004984,0.00000745,-0.
 00043591,0.00010667,0.00019403,-0.00050319,0.00019051,0.00013968,-0.00
 005248,-0.00015815,-0.00000486,-0.00012136,0.00001098,-0.00017104,0.00
 101357,0.00083195,0.00160999,-0.00043486,-0.00045760,-0.00043082,-0.00
 024122,-0.00016205,0.00034575,0.00002949,-0.00003622,-0.00011503,0.002
 10844,0.00137915,-0.04942076,0.00014463,-0.00030807,-0.00084851,-0.020
 96808,-0.01840160,0.00130883,-0.00172457,-0.00419969,0.05128134\\-0.00
 000176,-0.00000114,-0.00000003,-0.00000010,0.00000064,-0.00000038,-0.0
 0000009,0.00000064,0.00000038,0.00000291,-0.00000132,0.00000002,-0.000
 00261,0.00000087,0.00000005,0.,-0.00000004,0.,-0.00000001,-0.00000003,
 0.00000002,0.00000284,0.00000214,-0.00000002,-0.00000052,-0.00000101,0
 .00000055,-0.00000049,-0.00000126,0.,-0.00000049,-0.00000106,-0.000000
 59,-0.00000034,0.00000056,0.00000002,0.00000020,0.00000013,0.,-0.00000
 007,-0.00000011,0.00000027,0.00000033,0.00000022,0.00000017,-0.0000003
 2,0.00000053,-0.00000002,0.00000034,0.00000023,-0.00000016,-0.00000008
 ,-0.00000011,-0.00000027,0.00000027,0.00000013,-0.00000001\\\@


 BULLDOZER: SOMEONE WHO SLEEPS THROUGH SPEECHES.
 Job cpu time:       0 days  0 hours 30 minutes 10.9 seconds.
 File lengths (MBytes):  RWF=     64 Int=      0 D2E=      0 Chk=      3 Scr=      1
 Normal termination of Gaussian 09 at Sat Nov  7 02:28:37 2015.
