using PM6 to do opt and freq calc.                                      
FOpt      RPM6                                                        ZDO                 
Number of atoms                            I               20
Info1-9                                    I   N=           9
          33          29           0           0           0         110
           2           8         302
Charge                                     I                0
Multiplicity                               I                1
Number of electrons                        I               38
Number of alpha electrons                  I               19
Number of beta electrons                   I               19
Number of basis functions                  I               38
Number of independent functions            I               38
Number of point charges in /Mol/           I                0
Number of translation vectors              I                0
Atomic numbers                             I   N=          20
           6           1           1           1           6           1
           1           6           1           1           6           1
           1           6           1           1           6           1
           1           1
Nuclear charges                            R   N=          20
  4.00000000E+00  1.00000000E+00  1.00000000E+00  1.00000000E+00  4.00000000E+00
  1.00000000E+00  1.00000000E+00  4.00000000E+00  1.00000000E+00  1.00000000E+00
  4.00000000E+00  1.00000000E+00  1.00000000E+00  4.00000000E+00  1.00000000E+00
  1.00000000E+00  4.00000000E+00  1.00000000E+00  1.00000000E+00  1.00000000E+00
Current cartesian coordinates              R   N=          60
 -5.19648843E+00 -8.94573243E-01 -1.52116710E-01 -4.45879590E+00 -2.66215137E+00
  6.36097909E-01 -5.43570712E+00 -1.18262208E+00 -2.18866889E+00 -7.07518542E+00
 -5.86225691E-01  6.60075151E-01 -3.43890437E+00  1.32628771E+00  4.04075709E-01
 -4.28120723E+00  3.08550730E+00 -3.58306554E-01 -3.30012076E+00  1.61597696E+00
  2.47233655E+00 -7.87485261E-01  9.79249540E-01 -7.23188463E-01  2.11119946E-01
  2.81873475E+00 -7.17053218E-01 -9.37605959E-01  4.24060326E-01 -2.73408460E+00
  7.87485276E-01 -9.79248022E-01  7.23190282E-01 -2.11120881E-01 -2.81873279E+00
  7.17056628E-01  9.37607349E-01 -4.24057634E-01  2.73408600E+00  3.43890366E+00
 -1.32628829E+00 -4.04075020E-01  3.30011842E+00 -1.61597846E+00 -2.47233593E+00
  4.28120624E+00 -3.08550733E+00  3.58307834E-01  5.19648892E+00  8.94572482E-01
  1.52114480E-01  5.43571148E+00  1.18262043E+00  2.18866650E+00  7.07518484E+00
  5.86224036E-01 -6.60079812E-01  4.45879624E+00  2.66215046E+00 -6.36099241E-01
Force Field                                I                0
Int Atom Types                             I   N=          20
           0           0           0           0           0           0
           0           0           0           0           0           0
           0           0           0           0           0           0
           0           0
MM charges                                 R   N=          20
  0.00000000E+00  0.00000000E+00  0.00000000E+00  0.00000000E+00  0.00000000E+00
  0.00000000E+00  0.00000000E+00  0.00000000E+00  0.00000000E+00  0.00000000E+00
  0.00000000E+00  0.00000000E+00  0.00000000E+00  0.00000000E+00  0.00000000E+00
  0.00000000E+00  0.00000000E+00  0.00000000E+00  0.00000000E+00  0.00000000E+00
Integer atomic weights                     I   N=          20
          12           1           1           1          12           1
           1          12           1           1          12           1
           1          12           1           1          12           1
           1           1
Real atomic weights                        R   N=          20
  1.20000000E+01  1.00782504E+00  1.00782504E+00  1.00782504E+00  1.20000000E+01
  1.00782504E+00  1.00782504E+00  1.20000000E+01  1.00782504E+00  1.00782504E+00
  1.20000000E+01  1.00782504E+00  1.00782504E+00  1.20000000E+01  1.00782504E+00
  1.00782504E+00  1.20000000E+01  1.00782504E+00  1.00782504E+00  1.00782504E+00
Atom fragment info                         I   N=          20
           0           0           0           0           0           0
           0           0           0           0           0           0
           0           0           0           0           0           0
           0           0
Atom residue num                           I   N=          20
           0           0           0           0           0           0
           0           0           0           0           0           0
           0           0           0           0           0           0
           0           0
Nuclear spins                              I   N=          20
           0           1           1           1           0           1
           1           0           1           1           0           1
           1           0           1           1           0           1
           1           1
Nuclear ZEff                               R   N=          20
 -3.90000000E+00 -1.00000000E+00 -1.00000000E+00 -1.00000000E+00 -3.90000000E+00
 -1.00000000E+00 -1.00000000E+00 -3.90000000E+00 -1.00000000E+00 -1.00000000E+00
 -3.90000000E+00 -1.00000000E+00 -1.00000000E+00 -3.90000000E+00 -1.00000000E+00
 -1.00000000E+00 -3.90000000E+00 -1.00000000E+00 -1.00000000E+00 -1.00000000E+00
Nuclear QMom                               R   N=          20
  0.00000000E+00  0.00000000E+00  0.00000000E+00  0.00000000E+00  0.00000000E+00
  0.00000000E+00  0.00000000E+00  0.00000000E+00  0.00000000E+00  0.00000000E+00
  0.00000000E+00  0.00000000E+00  0.00000000E+00  0.00000000E+00  0.00000000E+00
  0.00000000E+00  0.00000000E+00  0.00000000E+00  0.00000000E+00  0.00000000E+00
Nuclear GFac                               R   N=          20
  0.00000000E+00  2.79284600E+00  2.79284600E+00  2.79284600E+00  0.00000000E+00
  2.79284600E+00  2.79284600E+00  0.00000000E+00  2.79284600E+00  2.79284600E+00
  0.00000000E+00  2.79284600E+00  2.79284600E+00  0.00000000E+00  2.79284600E+00
  2.79284600E+00  0.00000000E+00  2.79284600E+00  2.79284600E+00  2.79284600E+00
MicOpt                                     I   N=          20
          -1          -1          -1          -1          -1          -1
          -1          -1          -1          -1          -1          -1
          -1          -1          -1          -1          -1          -1
          -1          -1
Number of contracted shells                I               20
Number of primitive shells                 I              120
Pure/Cartesian d shells                    I                0
Pure/Cartesian f shells                    I                0
Highest angular momentum                   I                1
Largest degree of contraction              I                6
Shell types                                I   N=          20
          -1           0           0           0          -1           0
           0          -1           0           0          -1           0
           0          -1           0           0          -1           0
           0           0
Number of primitives per shell             I   N=          20
           6           6           6           6           6           6
           6           6           6           6           6           6
           6           6           6           6           6           6
           6           6
Shell to atom map                          I   N=          20
           1           2           3           4           5           6
           7           8           9          10          11          12
          13          14          15          16          17          18
          19          20
Primitive exponents                        R   N=         120
  1.14476344E+01  3.29633588E+00  1.29653143E+00  5.92558930E-01  2.94896438E-01
  1.51447622E-01  4.39461478E+00  1.26542531E+00  4.97723458E-01  2.27476537E-01
  1.13207340E-01  5.81389949E-02  4.39461478E+00  1.26542531E+00  4.97723458E-01
  2.27476537E-01  1.13207340E-01  5.81389949E-02  4.39461478E+00  1.26542531E+00
  4.97723458E-01  2.27476537E-01  1.13207340E-01  5.81389949E-02  1.14476344E+01
  3.29633588E+00  1.29653143E+00  5.92558930E-01  2.94896438E-01  1.51447622E-01
  4.39461478E+00  1.26542531E+00  4.97723458E-01  2.27476537E-01  1.13207340E-01
  5.81389949E-02  4.39461478E+00  1.26542531E+00  4.97723458E-01  2.27476537E-01
  1.13207340E-01  5.81389949E-02  1.14476344E+01  3.29633588E+00  1.29653143E+00
  5.92558930E-01  2.94896438E-01  1.51447622E-01  4.39461478E+00  1.26542531E+00
  4.97723458E-01  2.27476537E-01  1.13207340E-01  5.81389949E-02  4.39461478E+00
  1.26542531E+00  4.97723458E-01  2.27476537E-01  1.13207340E-01  5.81389949E-02
  1.14476344E+01  3.29633588E+00  1.29653143E+00  5.92558930E-01  2.94896438E-01
  1.51447622E-01  4.39461478E+00  1.26542531E+00  4.97723458E-01  2.27476537E-01
  1.13207340E-01  5.81389949E-02  4.39461478E+00  1.26542531E+00  4.97723458E-01
  2.27476537E-01  1.13207340E-01  5.81389949E-02  1.14476344E+01  3.29633588E+00
  1.29653143E+00  5.92558930E-01  2.94896438E-01  1.51447622E-01  4.39461478E+00
  1.26542531E+00  4.97723458E-01  2.27476537E-01  1.13207340E-01  5.81389949E-02
  4.39461478E+00  1.26542531E+00  4.97723458E-01  2.27476537E-01  1.13207340E-01
  5.81389949E-02  1.14476344E+01  3.29633588E+00  1.29653143E+00  5.92558930E-01
  2.94896438E-01  1.51447622E-01  4.39461478E+00  1.26542531E+00  4.97723458E-01
  2.27476537E-01  1.13207340E-01  5.81389949E-02  4.39461478E+00  1.26542531E+00
  4.97723458E-01  2.27476537E-01  1.13207340E-01  5.81389949E-02  4.39461478E+00
  1.26542531E+00  4.97723458E-01  2.27476537E-01  1.13207340E-01  5.81389949E-02
Contraction coefficients                   R   N=         120
 -9.73739553E-03 -7.26587678E-02 -1.71615520E-01  1.28977624E-01  7.28861451E-01
  3.01331742E-01 -9.73739553E-03 -7.26587678E-02 -1.71615520E-01  1.28977624E-01
  7.28861451E-01  3.01331742E-01 -9.73739553E-03 -7.26587678E-02 -1.71615520E-01
  1.28977624E-01  7.28861451E-01  3.01331742E-01 -9.73739553E-03 -7.26587678E-02
 -1.71615520E-01  1.28977624E-01  7.28861451E-01  3.01331742E-01 -9.73739553E-03
 -7.26587678E-02 -1.71615520E-01  1.28977624E-01  7.28861451E-01  3.01331742E-01
 -9.73739553E-03 -7.26587678E-02 -1.71615520E-01  1.28977624E-01  7.28861451E-01
  3.01331742E-01 -9.73739553E-03 -7.26587678E-02 -1.71615520E-01  1.28977624E-01
  7.28861451E-01  3.01331742E-01 -9.73739553E-03 -7.26587678E-02 -1.71615520E-01
  1.28977624E-01  7.28861451E-01  3.01331742E-01 -9.73739553E-03 -7.26587678E-02
 -1.71615520E-01  1.28977624E-01  7.28861451E-01  3.01331742E-01 -9.73739553E-03
 -7.26587678E-02 -1.71615520E-01  1.28977624E-01  7.28861451E-01  3.01331742E-01
 -9.73739553E-03 -7.26587678E-02 -1.71615520E-01  1.28977624E-01  7.28861451E-01
  3.01331742E-01 -9.73739553E-03 -7.26587678E-02 -1.71615520E-01  1.28977624E-01
  7.28861451E-01  3.01331742E-01 -9.73739553E-03 -7.26587678E-02 -1.71615520E-01
  1.28977624E-01  7.28861451E-01  3.01331742E-01 -9.73739553E-03 -7.26587678E-02
 -1.71615520E-01  1.28977624E-01  7.28861451E-01  3.01331742E-01 -9.73739553E-03
 -7.26587678E-02 -1.71615520E-01  1.28977624E-01  7.28861451E-01  3.01331742E-01
 -9.73739553E-03 -7.26587678E-02 -1.71615520E-01  1.28977624E-01  7.28861451E-01
  3.01331742E-01 -9.73739553E-03 -7.26587678E-02 -1.71615520E-01  1.28977624E-01
  7.28861451E-01  3.01331742E-01 -9.73739553E-03 -7.26587678E-02 -1.71615520E-01
  1.28977624E-01  7.28861451E-01  3.01331742E-01 -9.73739553E-03 -7.26587678E-02
 -1.71615520E-01  1.28977624E-01  7.28861451E-01  3.01331742E-01 -9.73739553E-03
 -7.26587678E-02 -1.71615520E-01  1.28977624E-01  7.28861451E-01  3.01331742E-01
P(S=P) Contraction coefficients            R   N=         120
 -8.10494336E-03 -1.71547892E-02  7.36978576E-02  3.96514999E-01  4.97808488E-01
  1.17482582E-01  0.00000000E+00  0.00000000E+00  0.00000000E+00  0.00000000E+00
  0.00000000E+00  0.00000000E+00  0.00000000E+00  0.00000000E+00  0.00000000E+00
  0.00000000E+00  0.00000000E+00  0.00000000E+00  0.00000000E+00  0.00000000E+00
  0.00000000E+00  0.00000000E+00  0.00000000E+00  0.00000000E+00 -8.10494336E-03
 -1.71547892E-02  7.36978576E-02  3.96514999E-01  4.97808488E-01  1.17482582E-01
  0.00000000E+00  0.00000000E+00  0.00000000E+00  0.00000000E+00  0.00000000E+00
  0.00000000E+00  0.00000000E+00  0.00000000E+00  0.00000000E+00  0.00000000E+00
  0.00000000E+00  0.00000000E+00 -8.10494336E-03 -1.71547892E-02  7.36978576E-02
  3.96514999E-01  4.97808488E-01  1.17482582E-01  0.00000000E+00  0.00000000E+00
  0.00000000E+00  0.00000000E+00  0.00000000E+00  0.00000000E+00  0.00000000E+00
  0.00000000E+00  0.00000000E+00  0.00000000E+00  0.00000000E+00  0.00000000E+00
 -8.10494336E-03 -1.71547892E-02  7.36978576E-02  3.96514999E-01  4.97808488E-01
  1.17482582E-01  0.00000000E+00  0.00000000E+00  0.00000000E+00  0.00000000E+00
  0.00000000E+00  0.00000000E+00  0.00000000E+00  0.00000000E+00  0.00000000E+00
  0.00000000E+00  0.00000000E+00  0.00000000E+00 -8.10494336E-03 -1.71547892E-02
  7.36978576E-02  3.96514999E-01  4.97808488E-01  1.17482582E-01  0.00000000E+00
  0.00000000E+00  0.00000000E+00  0.00000000E+00  0.00000000E+00  0.00000000E+00
  0.00000000E+00  0.00000000E+00  0.00000000E+00  0.00000000E+00  0.00000000E+00
  0.00000000E+00 -8.10494336E-03 -1.71547892E-02  7.36978576E-02  3.96514999E-01
  4.97808488E-01  1.17482582E-01  0.00000000E+00  0.00000000E+00  0.00000000E+00
  0.00000000E+00  0.00000000E+00  0.00000000E+00  0.00000000E+00  0.00000000E+00
  0.00000000E+00  0.00000000E+00  0.00000000E+00  0.00000000E+00  0.00000000E+00
  0.00000000E+00  0.00000000E+00  0.00000000E+00  0.00000000E+00  0.00000000E+00
Coordinates of each shell                  R   N=          60
 -5.19648843E+00 -8.94573243E-01 -1.52116710E-01 -4.45879590E+00 -2.66215137E+00
  6.36097909E-01 -5.43570712E+00 -1.18262208E+00 -2.18866889E+00 -7.07518542E+00
 -5.86225691E-01  6.60075151E-01 -3.43890437E+00  1.32628771E+00  4.04075709E-01
 -4.28120723E+00  3.08550730E+00 -3.58306554E-01 -3.30012076E+00  1.61597696E+00
  2.47233655E+00 -7.87485261E-01  9.79249540E-01 -7.23188463E-01  2.11119946E-01
  2.81873475E+00 -7.17053218E-01 -9.37605959E-01  4.24060326E-01 -2.73408460E+00
  7.87485276E-01 -9.79248022E-01  7.23190282E-01 -2.11120881E-01 -2.81873279E+00
  7.17056628E-01  9.37607349E-01 -4.24057634E-01  2.73408600E+00  3.43890366E+00
 -1.32628829E+00 -4.04075020E-01  3.30011842E+00 -1.61597846E+00 -2.47233593E+00
  4.28120624E+00 -3.08550733E+00  3.58307834E-01  5.19648892E+00  8.94572482E-01
  1.52114480E-01  5.43571148E+00  1.18262043E+00  2.18866650E+00  7.07518484E+00
  5.86224036E-01 -6.60079812E-01  4.45879624E+00  2.66215046E+00 -6.36099241E-01
Constraint Structure                       R   N=          60
  5.21828310E+00 -9.17311315E-01  1.54897518E-01  4.58262410E+00 -2.63413507E+00
 -8.79819791E-01  5.26207498E+00 -1.32572009E+00  2.21906004E+00  7.17014123E+00
 -4.52785248E-01 -4.79553386E-01  3.47376041E+00  1.31767697E+00 -3.95253679E-01
  4.33354245E+00  3.03177820E+00  4.77234156E-01  3.38754670E+00  1.63439473E+00
 -2.47589484E+00  7.87289365E-01  1.02382155E+00  6.65092118E-01 -1.74963651E-01
  2.88069090E+00  4.29212943E-01  8.92266781E-01  6.09318882E-01  2.72817430E+00
 -7.87283035E-01 -1.02382565E+00 -6.65092603E-01  1.74969981E-01 -2.88069500E+00
 -4.29213427E-01 -8.92260451E-01 -6.09322986E-01 -2.72817478E+00 -3.47375408E+00
 -1.31768107E+00  3.95253194E-01 -3.38756865E+00 -1.63411285E+00  2.47605101E+00
 -4.33350449E+00 -3.03175529E+00 -4.77050302E-01 -5.21827677E+00  9.17307211E-01
 -1.54898002E-01 -5.26204037E+00  1.32543000E+00 -2.21921718E+00 -7.17029315E+00
  4.52883727E-01  4.79565016E-01 -4.58264940E+00  2.63410395E+00  8.79634968E-01
Num ILSW                                   I              100
ILSW                                       I   N=         100
           0           0           0           0           2           0
           0           0           0           0           0          -1
           0           0           0           0           0           0
           0           0           0           0           1           0
           1           0           0           0           0           0
           0           0      100000           0          -1           0
           0           0           0           0           0           0
           0           0           0          40           0           0
           0           0           1           0           0           0
           0           0           4          40           0           0
           0           0           0           0           0           0
           0           0           0           0           0           0
           0           0           0           0           0           0
           0           0           0           0           0           0
           0           0           0           0           0           0
           0           0           0           0           0           0
           0           0           0           0
Num RLSW                                   I               40
RLSW                                       R   N=          40
  1.00000000E+00  1.00000000E+00  1.00000000E+00  1.00000000E+00  1.00000000E+00
  0.00000000E+00  0.00000000E+00  1.00000000E+00  0.00000000E+00  0.00000000E+00
  0.00000000E+00  0.00000000E+00  1.00000000E+00  0.00000000E+00  0.00000000E+00
  0.00000000E+00  0.00000000E+00  1.00000000E+00  0.00000000E+00  0.00000000E+00
  0.00000000E+00  0.00000000E+00  1.00000000E+00  0.00000000E+00  0.00000000E+00
  0.00000000E+00  0.00000000E+00  1.00000000E+00  0.00000000E+00  0.00000000E+00
  0.00000000E+00  0.00000000E+00  0.00000000E+00  0.00000000E+00  0.00000000E+00
  0.00000000E+00  0.00000000E+00  0.00000000E+00  1.00000000E+00  1.00000000E+00
MxBond                                     I                4
NBond                                      I   N=          20
           4           1           1           1           4           1
           1           4           1           1           4           1
           1           4           1           1           4           1
           1           1
IBond                                      I   N=          80
           2           3           4           5           1           0
           0           0           1           0           0           0
           1           0           0           0           1           6
           7           8           5           0           0           0
           5           0           0           0           5           9
          10          11           8           0           0           0
           8           0           0           0           8          12
          13          14          11           0           0           0
          11           0           0           0          11          15
          16          17          14           0           0           0
          14           0           0           0          14          18
          19          20          17           0           0           0
          17           0           0           0          17           0
           0           0
RBond                                      R   N=          80
  1.00000000E+00  1.00000000E+00  1.00000000E+00  1.00000000E+00  1.00000000E+00
  0.00000000E+00  0.00000000E+00  0.00000000E+00  1.00000000E+00  0.00000000E+00
  0.00000000E+00  0.00000000E+00  1.00000000E+00  0.00000000E+00  0.00000000E+00
  0.00000000E+00  1.00000000E+00  1.00000000E+00  1.00000000E+00  1.00000000E+00
  1.00000000E+00  0.00000000E+00  0.00000000E+00  0.00000000E+00  1.00000000E+00
  0.00000000E+00  0.00000000E+00  0.00000000E+00  1.00000000E+00  1.00000000E+00
  1.00000000E+00  1.00000000E+00  1.00000000E+00  0.00000000E+00  0.00000000E+00
  0.00000000E+00  1.00000000E+00  0.00000000E+00  0.00000000E+00  0.00000000E+00
  1.00000000E+00  1.00000000E+00  1.00000000E+00  1.00000000E+00  1.00000000E+00
  0.00000000E+00  0.00000000E+00  0.00000000E+00  1.00000000E+00  0.00000000E+00
  0.00000000E+00  0.00000000E+00  1.00000000E+00  1.00000000E+00  1.00000000E+00
  1.00000000E+00  1.00000000E+00  0.00000000E+00  0.00000000E+00  0.00000000E+00
  1.00000000E+00  0.00000000E+00  0.00000000E+00  0.00000000E+00  1.00000000E+00
  1.00000000E+00  1.00000000E+00  1.00000000E+00  1.00000000E+00  0.00000000E+00
  0.00000000E+00  0.00000000E+00  1.00000000E+00  0.00000000E+00  0.00000000E+00
  0.00000000E+00  1.00000000E+00  0.00000000E+00  0.00000000E+00  0.00000000E+00
Virial Ratio                               R      9.990119049569246E-01
SCF Energy                                 R     -5.543524151963197E-02
Total Energy                               R     -5.543524151963197E-02
RMS Force                                  R      1.013414987677826E-05
RMS Density                                R      1.740688872586708E-09
External E-field                           R   N=          35
  0.00000000E+00  0.00000000E+00  0.00000000E+00  0.00000000E+00  0.00000000E+00
  0.00000000E+00  0.00000000E+00  0.00000000E+00  0.00000000E+00  0.00000000E+00
  0.00000000E+00  0.00000000E+00  0.00000000E+00  0.00000000E+00  0.00000000E+00
  0.00000000E+00  0.00000000E+00  0.00000000E+00  0.00000000E+00  0.00000000E+00
  0.00000000E+00  0.00000000E+00  0.00000000E+00  0.00000000E+00  0.00000000E+00
  0.00000000E+00  0.00000000E+00  0.00000000E+00  0.00000000E+00  0.00000000E+00
  0.00000000E+00  0.00000000E+00  0.00000000E+00  0.00000000E+00  0.00000000E+00
IOpCl                                      I                0
IROHF                                      I                0
Alpha Orbital Energies                     R   N=          38
 -1.05702618E+00 -9.97553871E-01 -9.01558795E-01 -8.36501802E-01 -7.48842310E-01
 -7.17478176E-01 -5.81322590E-01 -5.64390408E-01 -5.55181745E-01 -5.19447112E-01
 -5.13063226E-01 -4.91769302E-01 -4.64615051E-01 -4.50320645E-01 -4.48301988E-01
 -4.25727917E-01 -4.15043233E-01 -4.08318344E-01 -4.01450159E-01  1.53916792E-01
  1.65224553E-01  1.67008656E-01  1.72856429E-01  1.80985999E-01  2.10700285E-01
  2.12608753E-01  2.13693268E-01  2.22211161E-01  2.22704896E-01  2.28354957E-01
  2.31641153E-01  2.32945510E-01  2.42000587E-01  2.45051013E-01  2.47826908E-01
  2.48123761E-01  2.57257580E-01  2.60052718E-01
Alpha MO coefficients                      R   N=        1444
  2.40784948E-01  6.11996795E-02  4.65621685E-02  9.15580022E-03  1.11151372E-01
  1.03109463E-01  9.09780251E-02  3.45600869E-01  5.60811833E-02 -4.67977352E-02
 -2.94974218E-02  1.35147922E-01  1.46587296E-01  4.15427844E-01 -3.97353694E-03
 -4.80938101E-02  5.45308950E-02  1.75023262E-01  1.75636992E-01  4.15427823E-01
  3.97349470E-03  4.80937636E-02 -5.45309251E-02  1.75023272E-01  1.75636972E-01
  3.45600829E-01 -5.60811330E-02  4.67977766E-02  2.94974136E-02  1.46587268E-01
  1.35147936E-01  2.40784924E-01 -6.11996804E-02 -4.65621593E-02 -9.15572798E-03
  1.03109426E-01  9.09780238E-02  1.11151375E-01  3.76883110E-01  4.99561822E-02
  6.43888772E-02  1.30003103E-02  1.56935217E-01  1.60942625E-01  1.59577326E-01
  4.02345696E-01 -3.37483323E-02 -5.34034495E-02 -2.67964025E-02  1.72904731E-01
  1.64229205E-01  1.51374957E-01 -1.48613309E-01  2.94575534E-02  1.68619530E-02
  4.01747694E-02  6.26714485E-02 -1.51374914E-01 -1.48613319E-01  2.94576121E-02
  1.68619874E-02 -4.01747137E-02 -6.26714547E-02 -4.02345753E-01 -3.37484168E-02
 -5.34034770E-02 -2.67963522E-02 -1.64229195E-01 -1.72904797E-01 -3.76883223E-01
  4.99561938E-02  6.43888963E-02  1.30002337E-02 -1.60942664E-01 -1.59577384E-01
 -1.56935283E-01  4.09749831E-01 -3.63009800E-02  1.08027011E-02  7.77102518E-03
  1.71006054E-01  1.83354838E-01  2.07938505E-01  1.02311793E-01 -1.95366653E-01
 -6.41655311E-02  1.04245882E-02  5.74010380E-02  3.79165911E-02 -3.38835891E-01
 -9.13869718E-02  4.45195683E-02 -2.97810845E-02 -1.48454851E-01 -1.37282423E-01
 -3.38835924E-01  9.13869235E-02 -4.45196384E-02  2.97810024E-02 -1.48454813E-01
 -1.37282485E-01  1.02311712E-01  1.95366648E-01  6.41654043E-02 -1.04247665E-02
  3.79165527E-02  5.74010273E-02  4.09749710E-01  3.63010138E-02 -1.08027321E-02
 -7.77104265E-03  1.83354798E-01  2.07938455E-01  1.71006016E-01  3.24796119E-01
 -7.51415053E-02 -9.47142188E-02 -3.67890012E-03  1.83117800E-01  1.60577615E-01
  1.77251199E-01 -2.22349316E-01 -1.55010096E-01 -1.34508210E-01  2.67511225E-02
 -1.33899759E-01 -9.86391684E-02 -2.94241267E-01  9.77157890E-02 -1.49512985E-01
  2.61406906E-02 -1.86483888E-01 -1.23560941E-01  2.94241277E-01  9.77157761E-02
 -1.49513021E-01  2.61407051E-02  1.86483887E-01  1.23560937E-01  2.22349362E-01
 -1.55010168E-01 -1.34508123E-01  2.67513233E-02  9.86391555E-02  1.33899788E-01
 -3.24796166E-01 -7.51415906E-02 -9.47141883E-02 -3.67877601E-03 -1.60577614E-01
 -1.77251234E-01 -1.83117844E-01 -2.02904671E-01  7.80555847E-02  1.86609147E-01
  5.44604733E-02 -1.61827695E-01 -1.45742508E-01 -1.06275969E-01  3.67340283E-01
 -5.62876704E-02  1.64605349E-01  6.89138420E-02  2.47026832E-01  2.15430222E-01
 -1.64613212E-01 -1.63120267E-01  9.41358286E-02  2.76013206E-02 -7.75629108E-02
 -9.74470122E-02 -1.64613062E-01  1.63120111E-01 -9.41360259E-02 -2.76012275E-02
 -7.75627676E-02 -9.74468904E-02  3.67340122E-01  5.62875535E-02 -1.64605396E-01
 -6.89135959E-02  2.15429990E-01  2.47026819E-01 -2.02904563E-01 -7.80556527E-02
 -1.86609082E-01 -5.44601709E-02 -1.45742303E-01 -1.06275914E-01 -1.61827713E-01
  1.21535523E-01 -6.34060005E-02 -1.05881891E-01 -1.00525696E-01  6.52436803E-02
  1.32445001E-01  5.84812736E-02 -2.19623138E-01  6.66578616E-02 -5.43666977E-02
 -1.84230608E-01 -1.02856391E-01 -2.17716226E-01  3.02321668E-01  5.62520794E-02
  8.62520647E-02 -2.61929229E-01  1.96688041E-01  2.78970417E-01 -3.02321764E-01
  5.62521845E-02  8.62518857E-02 -2.61929235E-01 -1.96688149E-01 -2.78970391E-01
  2.19623384E-01  6.66577667E-02 -5.43669556E-02 -1.84230551E-01  2.17716287E-01
  1.02856602E-01 -1.21535692E-01 -6.34062326E-02 -1.05882074E-01 -1.00525538E-01
 -1.32445036E-01 -5.84813756E-02 -6.52438822E-02  4.71640566E-02 -2.91493084E-01
  2.73415449E-02  5.23028068E-02 -6.08858470E-02  6.37596354E-03  2.16797994E-01
 -4.84356573E-02 -1.18833220E-01  2.21494078E-01  1.21244840E-01  1.06717863E-01
  7.47335049E-02 -1.19707985E-02  2.87732599E-01  2.91517579E-01  8.12679769E-02
  2.65935128E-01 -1.27013214E-01  1.19707969E-02  2.87732733E-01  2.91517411E-01
  8.12680349E-02 -2.65935081E-01  1.27013453E-01  4.84356577E-02 -1.18832794E-01
  2.21493997E-01  1.21244926E-01 -7.47335839E-02 -1.06717624E-01 -4.71639906E-02
 -2.91492817E-01  2.73415339E-02  5.23030004E-02 -6.37615207E-03 -2.16797785E-01
  6.08857962E-02 -2.57994296E-04 -5.09942117E-02  9.38448761E-02 -3.13054304E-01
 -1.46275468E-01  2.04572050E-01 -4.27514750E-02 -1.24857656E-02 -4.28565058E-02
  1.42220541E-01 -3.61828139E-01  1.80177789E-01 -2.37578439E-01  1.25862319E-02
 -1.41725664E-01  1.31295519E-01 -1.82825168E-01  3.15031903E-02  1.07548918E-01
  1.25856115E-02  1.41725198E-01 -1.31294594E-01  1.82826597E-01  3.15025564E-02
  1.07549724E-01 -1.24855534E-02  4.28585819E-02 -1.42221256E-01  3.61829321E-01
 -2.37579136E-01  1.80179260E-01 -2.58156205E-04  5.09951859E-02 -9.38464641E-02
  3.13055252E-01  2.04572597E-01 -4.27512960E-02 -1.46276831E-01  2.75916808E-02
  7.10258010E-02 -2.88922902E-01  1.43356985E-01  2.30165120E-01 -6.33545240E-02
 -2.12249451E-02 -4.95178935E-02  3.07998666E-01 -1.24242783E-01  1.85741143E-01
 -2.31457612E-01  1.09080716E-01  1.09414818E-01 -5.91089533E-02  1.61784913E-01
  2.20572044E-01  1.21214191E-01 -1.22558850E-01 -1.09414853E-01 -5.91101396E-02
  1.61785713E-01  2.20570742E-01 -1.21214076E-01  1.22558063E-01  4.95178340E-02
  3.07998669E-01 -1.24242239E-01  1.85738547E-01 -1.09079159E-01  2.31456630E-01
 -2.75916890E-02  7.10260348E-02 -2.88922342E-01  1.43355117E-01  6.33534669E-02
  2.12254711E-02 -2.30164355E-01  1.23129908E-02  4.31419855E-01 -9.08424234E-03
 -1.17942639E-01  8.01637123E-02  5.39960055E-02 -3.08235052E-01  8.41611662E-02
  5.68090373E-02 -2.83765877E-01 -1.01035038E-01 -1.22051781E-01 -5.58922955E-02
 -4.28333859E-02 -1.56961923E-01 -1.48764588E-01  3.60485608E-02 -1.62246998E-01
 -9.65976049E-03 -4.28334125E-02  1.56962025E-01  1.48764988E-01 -3.60481175E-02
 -1.62247313E-01 -9.65926497E-03  8.41611875E-02 -5.68083578E-02  2.83766190E-01
  1.01035144E-01 -5.58924973E-02 -1.22051675E-01  1.23130155E-02 -4.31419746E-01
  9.08392572E-03  1.17942636E-01  5.39954380E-02 -3.08234863E-01  8.01636163E-02
 -7.27934600E-03 -3.87332846E-03  6.28315900E-02  4.08813050E-01  6.77021980E-02
 -2.91509185E-01  1.21454397E-01  3.15011669E-03 -1.39386323E-01 -1.04184458E-01
  1.91262308E-01 -7.24512381E-02  1.15855786E-01  4.32653395E-02  9.11338271E-02
 -1.13079240E-01 -2.65805030E-01 -2.22454684E-02  2.11864568E-01 -4.32652469E-02
  9.11337196E-02 -1.13078744E-01 -2.65805072E-01  2.22450497E-02 -2.11864456E-01
 -3.15007353E-03 -1.39386121E-01 -1.04183552E-01  1.91262668E-01 -1.15855984E-01
  7.24509072E-02  7.27938096E-03 -3.87330654E-03  6.28312782E-02  4.08813099E-01
  2.91509161E-01 -1.21454717E-01 -6.77022706E-02  1.53058980E-02 -9.48290918E-02
  4.13839914E-01  1.77805282E-02 -2.74821981E-01 -3.82048036E-02  1.22391275E-01
 -1.87945314E-03 -1.96135435E-01 -2.02575235E-01 -3.16879058E-02 -6.27069122E-02
 -5.34138306E-02  5.34462413E-02  1.22029936E-01 -3.09769214E-01  1.64032682E-02
 -1.46617202E-01  6.67668083E-02  5.34463779E-02 -1.22029997E-01  3.09769368E-01
 -1.64029824E-02 -1.46617143E-01  6.67671636E-02 -1.87952623E-03  1.96135654E-01
  2.02575398E-01  3.16870470E-02 -5.34134409E-02 -6.27072073E-02  1.53058323E-02
  9.48290806E-02 -4.13840128E-01 -1.77808322E-02 -3.82048406E-02  1.22391447E-01