 Entering Gaussian System, Link 0=/share/apps/g09/g09
 Input=C6H14_1_10_1_opt_PM6.gjf
 Output=C6H14_1_10_1_opt_PM6.log
 Initial command:
 /share/apps/g09/l1.exe /state/partition1/Gau-5836.inp -scrdir=/state/partition1/
 Entering Link 1 = /share/apps/g09/l1.exe PID=      5839.
  
 Copyright (c) 1988,1990,1992,1993,1995,1998,2003,2009, Gaussian, Inc.
                  All Rights Reserved.
  
 This is part of the Gaussian(R) 09 program.  It is based on
 the Gaussian(R) 03 system (copyright 2003, Gaussian, Inc.),
 the Gaussian(R) 98 system (copyright 1998, Gaussian, Inc.),
 the Gaussian(R) 94 system (copyright 1995, Gaussian, Inc.),
 the Gaussian 92(TM) system (copyright 1992, Gaussian, Inc.),
 the Gaussian 90(TM) system (copyright 1990, Gaussian, Inc.),
 the Gaussian 88(TM) system (copyright 1988, Gaussian, Inc.),
 the Gaussian 86(TM) system (copyright 1986, Carnegie Mellon
 University), and the Gaussian 82(TM) system (copyright 1983,
 Carnegie Mellon University). Gaussian is a federally registered
 trademark of Gaussian, Inc.
  
 This software contains proprietary and confidential information,
 including trade secrets, belonging to Gaussian, Inc.
  
 This software is provided under written license and may be
 used, copied, transmitted, or stored only in accord with that
 written license.
  
 The following legend is applicable only to US Government
 contracts under FAR:
  
                    RESTRICTED RIGHTS LEGEND
  
 Use, reproduction and disclosure by the US Government is
 subject to restrictions as set forth in subparagraphs (a)
 and (c) of the Commercial Computer Software - Restricted
 Rights clause in FAR 52.227-19.
  
 Gaussian, Inc.
 340 Quinnipiac St., Bldg. 40, Wallingford CT 06492
  
  
 ---------------------------------------------------------------
 Warning -- This program may not be used in any manner that
 competes with the business of Gaussian, Inc. or will provide
 assistance to any competitor of Gaussian, Inc.  The licensee
 of this program is prohibited from giving any competitor of
 Gaussian, Inc. access to this program.  By using this program,
 the user acknowledges that Gaussian, Inc. is engaged in the
 business of creating and licensing software in the field of
 computational chemistry and represents and warrants to the
 licensee that it is not a competitor of Gaussian, Inc. and that
 it will not use this program in any manner prohibited above.
 ---------------------------------------------------------------
  

 Cite this work as:
 Gaussian 09, Revision A.01,
 M. J. Frisch, G. W. Trucks, H. B. Schlegel, G. E. Scuseria, 
 M. A. Robb, J. R. Cheeseman, G. Scalmani, V. Barone, B. Mennucci, 
 G. A. Petersson, H. Nakatsuji, M. Caricato, X. Li, H. P. Hratchian, 
 A. F. Izmaylov, J. Bloino, G. Zheng, J. L. Sonnenberg, M. Hada, 
 M. Ehara, K. Toyota, R. Fukuda, J. Hasegawa, M. Ishida, T. Nakajima, 
 Y. Honda, O. Kitao, H. Nakai, T. Vreven, J. A. Montgomery, Jr., 
 J. E. Peralta, F. Ogliaro, M. Bearpark, J. J. Heyd, E. Brothers, 
 K. N. Kudin, V. N. Staroverov, R. Kobayashi, J. Normand, 
 K. Raghavachari, A. Rendell, J. C. Burant, S. S. Iyengar, J. Tomasi, 
 M. Cossi, N. Rega, J. M. Millam, M. Klene, J. E. Knox, J. B. Cross, 
 V. Bakken, C. Adamo, J. Jaramillo, R. Gomperts, R. E. Stratmann, 
 O. Yazyev, A. J. Austin, R. Cammi, C. Pomelli, J. W. Ochterski, 
 R. L. Martin, K. Morokuma, V. G. Zakrzewski, G. A. Voth, 
 P. Salvador, J. J. Dannenberg, S. Dapprich, A. D. Daniels, 
 O. Farkas, J. B. Foresman, J. V. Ortiz, J. Cioslowski, 
 and D. J. Fox, Gaussian, Inc., Wallingford CT, 2009.
 
 ******************************************
 Gaussian 09:  EM64L-G09RevA.01  8-May-2009
                14-Sep-2015 
 ******************************************
 %mem=3GB
 %nprocshared=2
 Will use up to    2 processors via shared memory.
 %chk=C6H14_1_10_1_opt_PM6.chk
 ----------
 #p PM6 opt
 ----------
 1/14=-1,18=20,19=15,26=1,38=1/1,3;
 2/9=110,12=2,17=6,18=5,40=1/2;
 3/5=2,16=1,25=1,41=3900000,71=1/1,2,3;
 4/35=1/1;
 5/5=2,35=1,38=5/2;
 6/7=2,8=2,9=2,10=2,28=1/1;
 7//1,2,3,16;
 1/14=-1,18=20,19=15/3(2);
 2/9=110/2;
 99//99;
 2/9=110/2;
 3/5=2,16=1,25=1,41=3900000,71=1,135=20/1,2,3;
 4/5=5,16=3,35=1/1;
 5/5=2,35=1,38=5/2;
 7//1,2,3,16;
 1/14=-1,18=20,19=15/3(-5);
 2/9=110/2;
 6/7=2,8=2,9=2,10=2,19=2,28=1/1;
 99/9=1/99;
 Leave Link    1 at Mon Sep 14 19:12:05 2015, MaxMem=  402653184 cpu:       0.0
 (Enter /share/apps/g09/l101.exe)
 ----------------------------------
 using PM6 to do opt and freq calc.
 ----------------------------------
 Symbolic Z-matrix:
 Charge =  0 Multiplicity = 1
 C                     1.7235    2.1       0.7423 
 H                     1.9701    1.2884    0.022 
 H                     1.7902    1.7032    1.7808 
 H                     2.4765    2.9116    0.6228 
 C                     0.3271    2.6597    0.4729 
 H                     0.1861    3.5499    1.1291 
 H                     0.2685    3.0065   -0.5848 
 C                    -0.8149    1.6731    0.7601 
 H                    -1.7667    2.2476    0.6936 
 H                    -0.7193    1.2906    1.803 
 C                    -0.8793    0.491    -0.2209 
 H                     0.0725   -0.0835   -0.1544 
 H                    -0.9749    0.8735   -1.2638 
 C                    -2.0213   -0.4956    0.0663 
 H                    -1.9628   -0.8423    1.1241 
 H                    -1.8803   -1.3858   -0.5898 
 C                    -3.4177    0.0641   -0.2031 
 H                    -3.4843    0.4608   -1.2417 
 H                    -4.1708   -0.7475   -0.0836 
 H                    -3.6643    0.8757    0.5171 
 
 NAtoms=     20 NQM=     20 NQMF=      0 NMic=      0 NMicF=      0 NTot=     20.
                    Isotopes and Nuclear Properties:
 (Nuclear quadrupole moments (NQMom) in fm**2, nuclear magnetic moments (NMagM)
  in nuclear magnetons)

  Atom         1           2           3           4           5           6           7           8           9          10
 IAtWgt=          12           1           1           1          12           1           1          12           1           1
 AtmWgt=  12.0000000   1.0078250   1.0078250   1.0078250  12.0000000   1.0078250   1.0078250  12.0000000   1.0078250   1.0078250
 NucSpn=           0           1           1           1           0           1           1           0           1           1
 AtZEff=   0.0000000   0.0000000   0.0000000   0.0000000   0.0000000   0.0000000   0.0000000   0.0000000   0.0000000   0.0000000
 NQMom=    0.0000000   0.0000000   0.0000000   0.0000000   0.0000000   0.0000000   0.0000000   0.0000000   0.0000000   0.0000000
 NMagM=    0.0000000   2.7928460   2.7928460   2.7928460   0.0000000   2.7928460   2.7928460   0.0000000   2.7928460   2.7928460

  Atom        11          12          13          14          15          16          17          18          19          20
 IAtWgt=          12           1           1          12           1           1          12           1           1           1
 AtmWgt=  12.0000000   1.0078250   1.0078250  12.0000000   1.0078250   1.0078250  12.0000000   1.0078250   1.0078250   1.0078250
 NucSpn=           0           1           1           0           1           1           0           1           1           1
 AtZEff=   0.0000000   0.0000000   0.0000000   0.0000000   0.0000000   0.0000000   0.0000000   0.0000000   0.0000000   0.0000000
 NQMom=    0.0000000   0.0000000   0.0000000   0.0000000   0.0000000   0.0000000   0.0000000   0.0000000   0.0000000   0.0000000
 NMagM=    0.0000000   2.7928460   2.7928460   0.0000000   2.7928460   2.7928460   0.0000000   2.7928460   2.7928460   2.7928460
 Leave Link  101 at Mon Sep 14 19:12:08 2015, MaxMem=  402653184 cpu:       0.1
 (Enter /share/apps/g09/l103.exe)

 GradGradGradGradGradGradGradGradGradGradGradGradGradGradGradGradGradGrad
 Berny optimization.
 Initialization pass.
                           ----------------------------
                           !    Initial Parameters    !
                           ! (Angstroms and Degrees)  !
 --------------------------                            --------------------------
 ! Name  Definition              Value          Derivative Info.                !
 --------------------------------------------------------------------------------
 ! R1    R(1,2)                  1.1128         estimate D2E/DX2                !
 ! R2    R(1,3)                  1.1137         estimate D2E/DX2                !
 ! R3    R(1,4)                  1.1135         estimate D2E/DX2                !
 ! R4    R(1,5)                  1.5283         estimate D2E/DX2                !
 ! R5    R(5,6)                  1.1149         estimate D2E/DX2                !
 ! R6    R(5,7)                  1.1146         estimate D2E/DX2                !
 ! R7    R(5,8)                  1.5362         estimate D2E/DX2                !
 ! R8    R(8,9)                  1.1137         estimate D2E/DX2                !
 ! R9    R(8,10)                 1.1149         estimate D2E/DX2                !
 ! R10   R(8,11)                 1.5375         estimate D2E/DX2                !
 ! R11   R(11,12)                1.1137         estimate D2E/DX2                !
 ! R12   R(11,13)                1.1149         estimate D2E/DX2                !
 ! R13   R(11,14)                1.5362         estimate D2E/DX2                !
 ! R14   R(14,15)                1.1147         estimate D2E/DX2                !
 ! R15   R(14,16)                1.1148         estimate D2E/DX2                !
 ! R16   R(14,17)                1.5283         estimate D2E/DX2                !
 ! R17   R(17,18)                1.1138         estimate D2E/DX2                !
 ! R18   R(17,19)                1.1136         estimate D2E/DX2                !
 ! R19   R(17,20)                1.1127         estimate D2E/DX2                !
 ! A1    A(2,1,3)              109.2958         estimate D2E/DX2                !
 ! A2    A(2,1,4)              108.1949         estimate D2E/DX2                !
 ! A3    A(2,1,5)              110.8222         estimate D2E/DX2                !
 ! A4    A(3,1,4)              108.6171         estimate D2E/DX2                !
 ! A5    A(3,1,5)              110.4605         estimate D2E/DX2                !
 ! A6    A(4,1,5)              109.3912         estimate D2E/DX2                !
 ! A7    A(1,5,6)              107.7113         estimate D2E/DX2                !
 ! A8    A(1,5,7)              109.2228         estimate D2E/DX2                !
 ! A9    A(1,5,8)              114.2715         estimate D2E/DX2                !
 ! A10   A(6,5,7)              107.6643         estimate D2E/DX2                !
 ! A11   A(6,5,8)              107.9836         estimate D2E/DX2                !
 ! A12   A(7,5,8)              109.7631         estimate D2E/DX2                !
 ! A13   A(5,8,9)              107.0287         estimate D2E/DX2                !
 ! A14   A(5,8,10)             109.3571         estimate D2E/DX2                !
 ! A15   A(5,8,11)             113.9302         estimate D2E/DX2                !
 ! A16   A(9,8,10)             107.8241         estimate D2E/DX2                !
 ! A17   A(9,8,11)             108.8266         estimate D2E/DX2                !
 ! A18   A(10,8,11)            109.673          estimate D2E/DX2                !
 ! A19   A(8,11,12)            108.8266         estimate D2E/DX2                !
 ! A20   A(8,11,13)            109.673          estimate D2E/DX2                !
 ! A21   A(8,11,14)            113.9302         estimate D2E/DX2                !
 ! A22   A(12,11,13)           107.8241         estimate D2E/DX2                !
 ! A23   A(12,11,14)           107.0287         estimate D2E/DX2                !
 ! A24   A(13,11,14)           109.3571         estimate D2E/DX2                !
 ! A25   A(11,14,15)           109.7636         estimate D2E/DX2                !
 ! A26   A(11,14,16)           107.9856         estimate D2E/DX2                !
 ! A27   A(11,14,17)           114.2715         estimate D2E/DX2                !
 ! A28   A(15,14,16)           107.6673         estimate D2E/DX2                !
 ! A29   A(15,14,17)           109.2158         estimate D2E/DX2                !
 ! A30   A(16,14,17)           107.7132         estimate D2E/DX2                !
 ! A31   A(14,17,18)           110.4535         estimate D2E/DX2                !
 ! A32   A(14,17,19)           109.3949         estimate D2E/DX2                !
 ! A33   A(14,17,20)           110.8244         estimate D2E/DX2                !
 ! A34   A(18,17,19)           108.615          estimate D2E/DX2                !
 ! A35   A(18,17,20)           109.2997         estimate D2E/DX2                !
 ! A36   A(19,17,20)           108.1943         estimate D2E/DX2                !
 ! D1    D(2,1,5,6)           -172.7266         estimate D2E/DX2                !
 ! D2    D(2,1,5,7)            -56.0662         estimate D2E/DX2                !
 ! D3    D(2,1,5,8)             67.304          estimate D2E/DX2                !
 ! D4    D(3,1,5,6)             65.9926         estimate D2E/DX2                !
 ! D5    D(3,1,5,7)           -177.3471         estimate D2E/DX2                !
 ! D6    D(3,1,5,8)            -53.9768         estimate D2E/DX2                !
 ! D7    D(4,1,5,6)            -53.516          estimate D2E/DX2                !
 ! D8    D(4,1,5,7)             63.1443         estimate D2E/DX2                !
 ! D9    D(4,1,5,8)           -173.4854         estimate D2E/DX2                !
 ! D10   D(1,5,8,9)            170.581          estimate D2E/DX2                !
 ! D11   D(1,5,8,10)            54.0352         estimate D2E/DX2                !
 ! D12   D(1,5,8,11)           -69.0771         estimate D2E/DX2                !
 ! D13   D(6,5,8,9)             50.764          estimate D2E/DX2                !
 ! D14   D(6,5,8,10)           -65.7817         estimate D2E/DX2                !
 ! D15   D(6,5,8,11)           171.106          estimate D2E/DX2                !
 ! D16   D(7,5,8,9)            -66.3408         estimate D2E/DX2                !
 ! D17   D(7,5,8,10)           177.1135         estimate D2E/DX2                !
 ! D18   D(7,5,8,11)            54.0012         estimate D2E/DX2                !
 ! D19   D(5,8,11,12)           60.6723         estimate D2E/DX2                !
 ! D20   D(5,8,11,13)          -57.0599         estimate D2E/DX2                !
 ! D21   D(5,8,11,14)          180.0            estimate D2E/DX2                !
 ! D22   D(9,8,11,12)          180.0            estimate D2E/DX2                !
 ! D23   D(9,8,11,13)           62.2678         estimate D2E/DX2                !
 ! D24   D(9,8,11,14)          -60.6723         estimate D2E/DX2                !
 ! D25   D(10,8,11,12)         -62.2678         estimate D2E/DX2                !
 ! D26   D(10,8,11,13)         180.0            estimate D2E/DX2                !
 ! D27   D(10,8,11,14)          57.0599         estimate D2E/DX2                !
 ! D28   D(8,11,14,15)         -53.9923         estimate D2E/DX2                !
 ! D29   D(8,11,14,16)        -171.1022         estimate D2E/DX2                !
 ! D30   D(8,11,14,17)          69.0771         estimate D2E/DX2                !
 ! D31   D(12,11,14,15)         66.3497         estimate D2E/DX2                !
 ! D32   D(12,11,14,16)        -50.7602         estimate D2E/DX2                !
 ! D33   D(12,11,14,17)       -170.581          estimate D2E/DX2                !
 ! D34   D(13,11,14,15)       -177.1046         estimate D2E/DX2                !
 ! D35   D(13,11,14,16)         65.7855         estimate D2E/DX2                !
 ! D36   D(13,11,14,17)        -54.0352         estimate D2E/DX2                !
 ! D37   D(11,14,17,18)         53.9819         estimate D2E/DX2                !
 ! D38   D(11,14,17,19)        173.4859         estimate D2E/DX2                !
 ! D39   D(11,14,17,20)        -67.3005         estimate D2E/DX2                !
 ! D40   D(15,14,17,18)        177.3474         estimate D2E/DX2                !
 ! D41   D(15,14,17,19)        -63.1486         estimate D2E/DX2                !
 ! D42   D(15,14,17,20)         56.0649         estimate D2E/DX2                !
 ! D43   D(16,14,17,18)        -65.9914         estimate D2E/DX2                !
 ! D44   D(16,14,17,19)         53.5126         estimate D2E/DX2                !
 ! D45   D(16,14,17,20)        172.7262         estimate D2E/DX2                !
 --------------------------------------------------------------------------------
 Trust Radius=3.00D-01 FncErr=1.00D-07 GrdErr=1.00D-07
 Number of steps in this run= 110 maximum allowed number of steps= 120.
 GradGradGradGradGradGradGradGradGradGradGradGradGradGradGradGradGradGrad

 Leave Link  103 at Mon Sep 14 19:12:08 2015, MaxMem=  402653184 cpu:       0.0
 (Enter /share/apps/g09/l202.exe)
                          Input orientation:                          
 ---------------------------------------------------------------------
 Center     Atomic      Atomic             Coordinates (Angstroms)
 Number     Number       Type             X           Y           Z
 ---------------------------------------------------------------------
      1          6           0        1.723500    2.100000    0.742300
      2          1           0        1.970100    1.288400    0.022000
      3          1           0        1.790200    1.703200    1.780800
      4          1           0        2.476500    2.911600    0.622800
      5          6           0        0.327100    2.659700    0.472900
      6          1           0        0.186100    3.549900    1.129100
      7          1           0        0.268500    3.006500   -0.584800
      8          6           0       -0.814900    1.673100    0.760100
      9          1           0       -1.766700    2.247600    0.693600
     10          1           0       -0.719300    1.290600    1.803000
     11          6           0       -0.879300    0.491000   -0.220900
     12          1           0        0.072500   -0.083500   -0.154400
     13          1           0       -0.974900    0.873500   -1.263800
     14          6           0       -2.021300   -0.495600    0.066300
     15          1           0       -1.962800   -0.842300    1.124100
     16          1           0       -1.880300   -1.385800   -0.589800
     17          6           0       -3.417700    0.064100   -0.203100
     18          1           0       -3.484300    0.460800   -1.241700
     19          1           0       -4.170800   -0.747500   -0.083600
     20          1           0       -3.664300    0.875700    0.517100
 ---------------------------------------------------------------------
                    Distance matrix (angstroms):
                    1          2          3          4          5
     1  C    0.000000
     2  H    1.112806   0.000000
     3  H    1.113724   1.815985   0.000000
     4  H    1.113546   1.803380   1.808923   0.000000
     5  C    1.528324   2.187058   2.183153   2.169296   0.000000
     6  H    2.148354   3.085889   2.531433   2.430987   1.114870
     7  H    2.167939   2.493094   3.100036   2.518446   1.114645
     8  C    2.574109   2.906718   2.798085   3.519382   1.536238
     9  H    3.493659   3.915965   3.758978   4.295423   2.145352
    10  H    2.783430   3.225653   2.543290   3.772751   2.176822
    11  C    3.207991   2.968826   3.549995   4.222858   2.576823
    12  H    2.880546   2.348215   3.144486   3.918403   2.825504
    13  H    3.579120   3.240131   4.195685   4.430042   2.811021
    14  C    4.606261   4.372173   4.722474   5.670001   3.954267
    15  H    4.731988   4.606757   4.582121   5.835276   4.234585
    16  H    5.187742   4.727708   5.351097   6.238570   4.729484
    17  C    5.609867   5.529735   5.809021   6.597875   4.606261
    18  H    5.808994   5.659712   6.204790   6.709241   4.722477
    19  H    6.597965   6.470448   6.709355   7.620670   5.670080
    20  H    5.529739   5.671147   5.659794   6.470354   4.372171
                    6          7          8          9         10
     6  H    0.000000
     7  H    1.799868   0.000000
     8  C    2.158828   2.181849   0.000000
     9  H    2.387273   2.520372   1.113731   0.000000
    10  H    2.525535   3.101879   1.114938   1.801018   0.000000
    11  C    3.509195   2.788836   1.537488   2.170123   2.182002
    12  H    3.855110   3.125981   2.170123   3.088007   2.519229
    13  H    3.773196   2.560620   2.182002   2.519229   3.105570
    14  C    4.729506   4.234598   2.576823   2.825504   2.811021
    15  H    4.889705   4.765742   2.788800   3.125903   2.560559
    16  H    5.620121   4.889751   3.509156   3.855077   3.773133
    17  C    5.187768   4.731964   3.207991   2.880546   3.579120
    18  H    5.351174   4.582097   3.550010   3.144549   4.195711
    19  H    6.238659   5.835332   4.222937   3.918464   4.430120
    20  H    4.727734   4.606670   2.968834   2.348222   3.240171
                   11         12         13         14         15
    11  C    0.000000
    12  H    1.113731   0.000000
    13  H    1.114938   1.801018   0.000000
    14  C    1.536238   2.145352   2.176822   0.000000
    15  H    2.181900   2.520473   3.101932   1.114704   0.000000
    16  H    2.158811   2.387255   2.525562   1.114811   1.799903
    17  C    2.574109   3.493659   2.783430   1.528324   2.167892
    18  H    2.798030   3.758897   2.543206   2.183102   3.100007
    19  H    3.519475   4.295521   3.772836   2.169395   2.518490
    20  H    2.906693   3.915948   3.225598   2.187038   2.493005
                   16         17         18         19         20
    16  H    0.000000
    17  C    2.148336   0.000000
    18  H    2.531348   1.113776   0.000000
    19  H    2.431061   1.113613   1.808996   0.000000
    20  H    3.085817   1.112742   1.816017   1.803375   0.000000
 Stoichiometry    C6H14
 Framework group  C1[X(C6H14)]
 Deg. of freedom    54
 Full point group                 C1      NOp   1
 Largest Abelian subgroup         C1      NOp   1
 Largest concise Abelian subgroup C1      NOp   1
                         Standard orientation:                         
 ---------------------------------------------------------------------
 Center     Atomic      Atomic             Coordinates (Angstroms)
 Number     Number       Type             X           Y           Z
 ---------------------------------------------------------------------
      1          6           0        2.761396   -0.485420    0.081968
      2          1           0        2.425020   -1.393924   -0.465581
      3          1           0        2.784570   -0.701541    1.174276
      4          1           0        3.794275   -0.239604   -0.253769
      5          6           0        1.838235    0.697285   -0.209159
      6          1           0        2.293212    1.604348    0.252541
      7          1           0        1.792613    0.864884   -1.310187
      8          6           0        0.416616    0.541783    0.351952
      9          1           0       -0.092587    1.524396    0.227130
     10          1           0        0.472167    0.322438    1.443688
     11          6           0       -0.416612   -0.541785   -0.351952
     12          1           0        0.092590   -1.524398   -0.227130
     13          1           0       -0.472164   -0.322440   -1.443688
     14          6           0       -1.838231   -0.697287    0.209159
     15          1           0       -1.792624   -0.864735    1.310270
     16          1           0       -2.293192   -1.604336   -0.252444
     17          6           0       -2.761393    0.485418   -0.081968
     18          1           0       -2.784552    0.701387   -1.174359
     19          1           0       -3.794356    0.239656    0.253775
     20          1           0       -2.425034    1.393908    0.465483
 ---------------------------------------------------------------------
 Rotational constants (GHZ):      8.9617467      1.4126455      1.3184996
 Leave Link  202 at Mon Sep 14 19:12:08 2015, MaxMem=  402653184 cpu:       0.0
 (Enter /share/apps/g09/l301.exe)
 Standard basis: VSTO-6G (5D, 7F)
 Ernie: Thresh=  0.10000D-02 Tol=  0.10000D-05 Strict=F.
  NNHCO=     0 NNPyr=     0 NCTC=     0               EPep=         0.000000000
    EC=       125.908891386  ECS=         3.144045502   EG=         0.308563365
   EHC=         0.000409844  EAt=       -31.187935768  AtH=         2.796400831
 EPDDG=         0.000000000  ECC=       129.361910097 EAtT=        33.984336599
 There are    38 symmetry adapted basis functions of A   symmetry.
 Integral buffers will be    131072 words long.
 Regular integral format.
 Two-electron integral symmetry is turned off.
    38 basis functions,   228 primitive gaussians,    38 cartesian basis functions
    19 alpha electrons       19 beta electrons
       nuclear repulsion energy       163.3462466957 Hartrees.
 IExCor=    0 DFT=F Ex=HF Corr=None ExCW=0 ScaHFX=  1.000000
 ScaDFX=  1.000000  1.000000  1.000000  1.000000 ScalE2=  1.000000  1.000000
 IRadAn=      0 IRanWt=     -1 IRanGd=            0 ICorTp=0
 Leave Link  301 at Mon Sep 14 19:12:08 2015, MaxMem=  402653184 cpu:       0.1
 (Enter /share/apps/g09/l302.exe)
 Do NDO integrals.
 NPDir=0 NMtPBC=     1 NCelOv=     1 NCel=       1 NClECP=     1 NCelD=      1
         NCelK=      1 NCelE2=     1 NClLst=     1 CellRange=     0.0.
 One-electron integrals computed using PRISM.
 NBasis=    38 RedAO= F  NBF=    38
 NBsUse=    38 1.00D-04 NBFU=    38
 Leave Link  302 at Mon Sep 14 19:12:08 2015, MaxMem=  402653184 cpu:       0.1
 (Enter /share/apps/g09/l303.exe)
 DipDrv:  MaxL=1.
 Leave Link  303 at Mon Sep 14 19:12:08 2015, MaxMem=  402653184 cpu:       0.1
 (Enter /share/apps/g09/l401.exe)
 Simple Huckel Guess.
 Initial guess orbital symmetries:
       Occupied  (A) (A) (A) (A) (A) (A) (A) (A) (A) (A) (A) (A)
                 (A) (A) (A) (A) (A) (A) (A)
       Virtual   (A) (A) (A) (A) (A) (A) (A) (A) (A) (A) (A) (A)
                 (A) (A) (A) (A) (A) (A) (A)
 The electronic state of the initial guess is 1-A.
 Leave Link  401 at Mon Sep 14 19:12:08 2015, MaxMem=  402653184 cpu:       0.1
 (Enter /share/apps/g09/l502.exe)
 Closed shell SCF:
 Requested convergence on RMS density matrix=1.00D-08 within 128 cycles.
 Requested convergence on MAX density matrix=1.00D-06.
 Requested convergence on             energy=1.00D-06.
 No special actions if energy rises.
 Using DIIS extrapolation, IDIIS=  1040.
 Overlap will be assumed to be unity.
 Two-electron integral symmetry not used.
 Keep J ints in memory in canonical form, NReq=884654.
 IEnd=       81865 IEndB=       81865 NGot=   402653184 MDV=   402586639
 LenX=   402586639 LenY=   402584754
 Symmetry not used in FoFDir.
 MinBra= 0 MaxBra= 1 Meth=40.
 IRaf=       0 NMat=   1 IRICut=       1 DoRegI=T DoRafI=F ISym2E= 0 JSym2E=0.

 Cycle   1  Pass 1  IDiag  1:
 E= 0.735081965876248E-01
 DIIS: error= 2.20D-02 at cycle   1 NSaved=   1.
 NSaved= 1 IEnMin= 1 EnMin= 0.735081965876248E-01 IErMin= 1 ErrMin= 2.20D-02
 ErrMax= 2.20D-02 EMaxC= 1.00D-01 BMatC= 4.39D-02 BMatP= 4.39D-02
 IDIUse=3 WtCom= 7.80D-01 WtEn= 2.20D-01
 Coeff-Com:  0.100D+01
 Coeff-En:   0.100D+01
 Coeff:      0.100D+01
 GapD=    2.000 DampG=2.000 DampE=0.500 DampFc=1.0000 IDamp=-1.
 RMSDP=8.40D-03 MaxDP=6.94D-02              OVMax= 0.00D+00

 Cycle   2  Pass 1  IDiag  1:
 E=-0.429973051043362E-01 Delta-E=       -0.116505501692 Rises=F Damp=F
 DIIS: error= 5.36D-03 at cycle   2 NSaved=   2.
 NSaved= 2 IEnMin= 2 EnMin=-0.429973051043362E-01 IErMin= 2 ErrMin= 5.36D-03
 ErrMax= 5.36D-03 EMaxC= 1.00D-01 BMatC= 2.91D-03 BMatP= 4.39D-02
 IDIUse=3 WtCom= 9.46D-01 WtEn= 5.36D-02
 Coeff-Com: -0.321D+00 0.132D+01
 Coeff-En:   0.000D+00 0.100D+01
 Coeff:     -0.304D+00 0.130D+01
 RMSDP=3.01D-03 MaxDP=2.13D-02 DE=-1.17D-01 OVMax= 0.00D+00

 Cycle   3  Pass 1  IDiag  3:
 E=-0.523759137179525E-01 Delta-E=       -0.009378608614 Rises=F Damp=F
 DIIS: error= 1.41D-03 at cycle   3 NSaved=   3.
 NSaved= 3 IEnMin= 3 EnMin=-0.523759137179525E-01 IErMin= 3 ErrMin= 1.41D-03
 ErrMax= 1.41D-03 EMaxC= 1.00D-01 BMatC= 8.11D-05 BMatP= 2.91D-03
 IDIUse=3 WtCom= 9.86D-01 WtEn= 1.41D-02
 Coeff-Com:  0.238D+00-0.103D+01 0.179D+01
 Coeff-En:   0.000D+00 0.000D+00 0.100D+01
 Coeff:      0.235D+00-0.101D+01 0.178D+01
 Gap=     0.555 Goal=   None    Shift=    0.000
 RMSDP=8.54D-04 MaxDP=8.77D-03 DE=-9.38D-03 OVMax= 0.00D+00

 Cycle   4  Pass 1  IDiag  3:
 E=-0.528564251852686E-01 Delta-E=       -0.000480511467 Rises=F Damp=F
 DIIS: error= 3.37D-04 at cycle   4 NSaved=   4.
 NSaved= 4 IEnMin= 4 EnMin=-0.528564251852686E-01 IErMin= 4 ErrMin= 3.37D-04
 ErrMax= 3.37D-04 EMaxC= 1.00D-01 BMatC= 4.31D-06 BMatP= 8.11D-05
 IDIUse=3 WtCom= 9.97D-01 WtEn= 3.37D-03
 Coeff-Com: -0.115D+00 0.502D+00-0.104D+01 0.165D+01
 Coeff-En:   0.000D+00 0.000D+00 0.000D+00 0.100D+01
 Coeff:     -0.115D+00 0.501D+00-0.103D+01 0.165D+01
 Gap=     0.556 Goal=   None    Shift=    0.000
 RMSDP=2.28D-04 MaxDP=2.39D-03 DE=-4.81D-04 OVMax= 0.00D+00

 Cycle   5  Pass 1  IDiag  3:
 E=-0.528853968886551E-01 Delta-E=       -0.000028971703 Rises=F Damp=F
 DIIS: error= 8.53D-05 at cycle   5 NSaved=   5.
 NSaved= 5 IEnMin= 5 EnMin=-0.528853968886551E-01 IErMin= 5 ErrMin= 8.53D-05
 ErrMax= 8.53D-05 EMaxC= 1.00D-01 BMatC= 3.33D-07 BMatP= 4.31D-06
 IDIUse=1 WtCom= 1.00D+00 WtEn= 0.00D+00
 Coeff-Com:  0.606D-01-0.266D+00 0.582D+00-0.112D+01 0.174D+01
 Coeff:      0.606D-01-0.266D+00 0.582D+00-0.112D+01 0.174D+01
 Gap=     0.555 Goal=   None    Shift=    0.000
 RMSDP=6.49D-05 MaxDP=5.61D-04 DE=-2.90D-05 OVMax= 0.00D+00

 Cycle   6  Pass 1  IDiag  3:
 E=-0.528878542497466E-01 Delta-E=       -0.000002457361 Rises=F Damp=F
 DIIS: error= 2.63D-05 at cycle   6 NSaved=   6.
 NSaved= 6 IEnMin= 6 EnMin=-0.528878542497466E-01 IErMin= 6 ErrMin= 2.63D-05
 ErrMax= 2.63D-05 EMaxC= 1.00D-01 BMatC= 2.93D-08 BMatP= 3.33D-07
 IDIUse=1 WtCom= 1.00D+00 WtEn= 0.00D+00
 Coeff-Com: -0.174D-02 0.823D-02-0.315D-01 0.108D+00-0.484D+00 0.140D+01
 Coeff:     -0.174D-02 0.823D-02-0.315D-01 0.108D+00-0.484D+00 0.140D+01
 Gap=     0.556 Goal=   None    Shift=    0.000
 RMSDP=2.06D-05 MaxDP=2.09D-04 DE=-2.46D-06 OVMax= 0.00D+00

 Cycle   7  Pass 1  IDiag  3:
 E=-0.528880662066626E-01 Delta-E=       -0.000000211957 Rises=F Damp=F
 DIIS: error= 6.00D-06 at cycle   7 NSaved=   7.
 NSaved= 7 IEnMin= 7 EnMin=-0.528880662066626E-01 IErMin= 7 ErrMin= 6.00D-06
 ErrMax= 6.00D-06 EMaxC= 1.00D-01 BMatC= 2.04D-09 BMatP= 2.93D-08
 IDIUse=1 WtCom= 1.00D+00 WtEn= 0.00D+00
 Coeff-Com:  0.113D-02-0.521D-02 0.169D-01-0.494D-01 0.213D+00-0.767D+00
 Coeff-Com:  0.159D+01
 Coeff:      0.113D-02-0.521D-02 0.169D-01-0.494D-01 0.213D+00-0.767D+00
 Coeff:      0.159D+01
 Gap=     0.556 Goal=   None    Shift=    0.000
 RMSDP=4.91D-06 MaxDP=4.82D-05 DE=-2.12D-07 OVMax= 0.00D+00

 Cycle   8  Pass 1  IDiag  3:
 E=-0.528880790312201E-01 Delta-E=       -0.000000012825 Rises=F Damp=F
 DIIS: error= 1.98D-06 at cycle   8 NSaved=   8.
 NSaved= 8 IEnMin= 8 EnMin=-0.528880790312201E-01 IErMin= 8 ErrMin= 1.98D-06
 ErrMax= 1.98D-06 EMaxC= 1.00D-01 BMatC= 1.09D-10 BMatP= 2.04D-09
 IDIUse=1 WtCom= 1.00D+00 WtEn= 0.00D+00
 Coeff-Com: -0.241D-03 0.123D-02-0.631D-02 0.233D-01-0.120D+00 0.471D+00
 Coeff-Com: -0.111D+01 0.174D+01
 Coeff:     -0.241D-03 0.123D-02-0.631D-02 0.233D-01-0.120D+00 0.471D+00
 Coeff:     -0.111D+01 0.174D+01
 Gap=     0.556 Goal=   None    Shift=    0.000
 RMSDP=1.08D-06 MaxDP=1.04D-05 DE=-1.28D-08 OVMax= 0.00D+00

 Cycle   9  Pass 1  IDiag  3:
 E=-0.528880796945259E-01 Delta-E=       -0.000000000663 Rises=F Damp=F
 DIIS: error= 2.62D-07 at cycle   9 NSaved=   9.
 NSaved= 9 IEnMin= 9 EnMin=-0.528880796945259E-01 IErMin= 9 ErrMin= 2.62D-07
 ErrMax= 2.62D-07 EMaxC= 1.00D-01 BMatC= 3.34D-12 BMatP= 1.09D-10
 IDIUse=1 WtCom= 1.00D+00 WtEn= 0.00D+00
 Coeff-Com: -0.420D-04 0.131D-03 0.817D-03-0.496D-02 0.320D-01-0.135D+00
 Coeff-Com:  0.332D+00-0.652D+00 0.143D+01
 Coeff:     -0.420D-04 0.131D-03 0.817D-03-0.496D-02 0.320D-01-0.135D+00
 Coeff:      0.332D+00-0.652D+00 0.143D+01
 Gap=     0.556 Goal=   None    Shift=    0.000
 RMSDP=1.79D-07 MaxDP=1.78D-06 DE=-6.63D-10 OVMax= 0.00D+00

 Cycle  10  Pass 1  IDiag  3:
 E=-0.528880797121758E-01 Delta-E=       -0.000000000018 Rises=F Damp=F
 DIIS: error= 2.65D-08 at cycle  10 NSaved=  10.
 NSaved=10 IEnMin=10 EnMin=-0.528880797121758E-01 IErMin=10 ErrMin= 2.65D-08
 ErrMax= 2.65D-08 EMaxC= 1.00D-01 BMatC= 6.09D-14 BMatP= 3.34D-12
 IDIUse=1 WtCom= 1.00D+00 WtEn= 0.00D+00
 Coeff-Com: -0.538D-05 0.393D-04-0.409D-03 0.177D-02-0.995D-02 0.405D-01
 Coeff-Com: -0.986D-01 0.197D+00-0.498D+00 0.137D+01
 Coeff:     -0.538D-05 0.393D-04-0.409D-03 0.177D-02-0.995D-02 0.405D-01
 Coeff:     -0.986D-01 0.197D+00-0.498D+00 0.137D+01
 Gap=     0.556 Goal=   None    Shift=    0.000
 RMSDP=1.96D-08 MaxDP=1.75D-07 DE=-1.76D-11 OVMax= 0.00D+00

 Cycle  11  Pass 1  IDiag  3:
 E=-0.528880797127727E-01 Delta-E=       -0.000000000001 Rises=F Damp=F
 DIIS: error= 4.55D-09 at cycle  11 NSaved=  11.
 NSaved=11 IEnMin=11 EnMin=-0.528880797127727E-01 IErMin=11 ErrMin= 4.55D-09
 ErrMax= 4.55D-09 EMaxC= 1.00D-01 BMatC= 2.03D-15 BMatP= 6.09D-14
 IDIUse=1 WtCom= 1.00D+00 WtEn= 0.00D+00
 Coeff-Com:  0.142D-05-0.115D-04 0.133D-03-0.582D-03 0.330D-02-0.135D-01
 Coeff-Com:  0.328D-01-0.657D-01 0.170D+00-0.562D+00 0.144D+01
 Coeff:      0.142D-05-0.115D-04 0.133D-03-0.582D-03 0.330D-02-0.135D-01
 Coeff:      0.328D-01-0.657D-01 0.170D+00-0.562D+00 0.144D+01
 Gap=     0.556 Goal=   None    Shift=    0.000
 RMSDP=3.79D-09 MaxDP=2.63D-08 DE=-5.97D-13 OVMax= 0.00D+00

 Cycle  12  Pass 2  IDiag  1:
 RMSDP=3.79D-09 MaxDP=2.63D-08 DE=-5.97D-13 OVMax= 0.00D+00

 SCF Done:  E(RPM6) = -0.528880797128E-01 A.U. after   12 cycles
             Convg  =    0.3785D-08             -V/T =  0.9991
 KE=-5.603431167070D+01 PE=-2.479037237455D+02 EE= 1.405389006408D+02
 Leave Link  502 at Mon Sep 14 19:12:10 2015, MaxMem=  402653184 cpu:       0.7
 (Enter /share/apps/g09/l601.exe)
 Copying SCF densities to generalized density rwf, IOpCl= 0 IROHF=0.

 **********************************************************************

            Population analysis using the SCF density.

 **********************************************************************

 Orbital symmetries:
       Occupied  (A) (A) (A) (A) (A) (A) (A) (A) (A) (A) (A) (A)
                 (A) (A) (A) (A) (A) (A) (A)
       Virtual   (A) (A) (A) (A) (A) (A) (A) (A) (A) (A) (A) (A)
                 (A) (A) (A) (A) (A) (A) (A)
 The electronic state is 1-A.
 Alpha  occ. eigenvalues --   -1.04947  -0.99160  -0.89501  -0.83065  -0.74070
 Alpha  occ. eigenvalues --   -0.70524  -0.57764  -0.56477  -0.55860  -0.51579
 Alpha  occ. eigenvalues --   -0.51071  -0.49091  -0.46141  -0.44695  -0.44557
 Alpha  occ. eigenvalues --   -0.42533  -0.41118  -0.40760  -0.40099
 Alpha virt. eigenvalues --    0.15447   0.16393   0.16722   0.17328   0.18077
 Alpha virt. eigenvalues --    0.20991   0.21113   0.21388   0.21963   0.21989
 Alpha virt. eigenvalues --    0.22807   0.23091   0.23218   0.24008   0.24264
 Alpha virt. eigenvalues --    0.24475   0.24485   0.25113   0.25465
          Condensed to atoms (all electrons):
              1          2          3          4          5          6
     1  C    4.457896   0.000000   0.000000   0.000000   0.000000   0.000000
     2  H    0.000000   0.853082   0.000000   0.000000   0.000000   0.000000
     3  H    0.000000   0.000000   0.852772   0.000000   0.000000   0.000000
     4  H    0.000000   0.000000   0.000000   0.858454   0.000000   0.000000
     5  C    0.000000   0.000000   0.000000   0.000000   4.229449   0.000000
     6  H    0.000000   0.000000   0.000000   0.000000   0.000000   0.876961
     7  H    0.000000   0.000000   0.000000   0.000000   0.000000   0.000000
     8  C    0.000000   0.000000   0.000000   0.000000   0.000000   0.000000
     9  H    0.000000   0.000000   0.000000   0.000000   0.000000   0.000000
    10  H    0.000000   0.000000   0.000000   0.000000   0.000000   0.000000
    11  C    0.000000   0.000000   0.000000   0.000000   0.000000   0.000000
    12  H    0.000000   0.000000   0.000000   0.000000   0.000000   0.000000
    13  H    0.000000   0.000000   0.000000   0.000000   0.000000   0.000000
    14  C    0.000000   0.000000   0.000000   0.000000   0.000000   0.000000
    15  H    0.000000   0.000000   0.000000   0.000000   0.000000   0.000000
    16  H    0.000000   0.000000   0.000000   0.000000   0.000000   0.000000
    17  C    0.000000   0.000000   0.000000   0.000000   0.000000   0.000000
    18  H    0.000000   0.000000   0.000000   0.000000   0.000000   0.000000
    19  H    0.000000   0.000000   0.000000   0.000000   0.000000   0.000000
    20  H    0.000000   0.000000   0.000000   0.000000   0.000000   0.000000
              7          8          9         10         11         12
     1  C    0.000000   0.000000   0.000000   0.000000   0.000000   0.000000
     2  H    0.000000   0.000000   0.000000   0.000000   0.000000   0.000000
     3  H    0.000000   0.000000   0.000000   0.000000   0.000000   0.000000
     4  H    0.000000   0.000000   0.000000   0.000000   0.000000   0.000000
     5  C    0.000000   0.000000   0.000000   0.000000   0.000000   0.000000
     6  H    0.000000   0.000000   0.000000   0.000000   0.000000   0.000000
     7  H    0.872858   0.000000   0.000000   0.000000   0.000000   0.000000
     8  C    0.000000   4.259083   0.000000   0.000000   0.000000   0.000000
     9  H    0.000000   0.000000   0.871058   0.000000   0.000000   0.000000
    10  H    0.000000   0.000000   0.000000   0.868386   0.000000   0.000000
    11  C    0.000000   0.000000   0.000000   0.000000   4.259080   0.000000
    12  H    0.000000   0.000000   0.000000   0.000000   0.000000   0.871057
    13  H    0.000000   0.000000   0.000000   0.000000   0.000000   0.000000
    14  C    0.000000   0.000000   0.000000   0.000000   0.000000   0.000000
    15  H    0.000000   0.000000   0.000000   0.000000   0.000000   0.000000
    16  H    0.000000   0.000000   0.000000   0.000000   0.000000   0.000000
    17  C    0.000000   0.000000   0.000000   0.000000   0.000000   0.000000
    18  H    0.000000   0.000000   0.000000   0.000000   0.000000   0.000000
    19  H    0.000000   0.000000   0.000000   0.000000   0.000000   0.000000
    20  H    0.000000   0.000000   0.000000   0.000000   0.000000   0.000000
             13         14         15         16         17         18
     1  C    0.000000   0.000000   0.000000   0.000000   0.000000   0.000000
     2  H    0.000000   0.000000   0.000000   0.000000   0.000000   0.000000
     3  H    0.000000   0.000000   0.000000   0.000000   0.000000   0.000000
     4  H    0.000000   0.000000   0.000000   0.000000   0.000000   0.000000
     5  C    0.000000   0.000000   0.000000   0.000000   0.000000   0.000000
     6  H    0.000000   0.000000   0.000000   0.000000   0.000000   0.000000
     7  H    0.000000   0.000000   0.000000   0.000000   0.000000   0.000000
     8  C    0.000000   0.000000   0.000000   0.000000   0.000000   0.000000
     9  H    0.000000   0.000000   0.000000   0.000000   0.000000   0.000000
    10  H    0.000000   0.000000   0.000000   0.000000   0.000000   0.000000
    11  C    0.000000   0.000000   0.000000   0.000000   0.000000   0.000000
    12  H    0.000000   0.000000   0.000000   0.000000   0.000000   0.000000
    13  H    0.868386   0.000000   0.000000   0.000000   0.000000   0.000000
    14  C    0.000000   4.229452   0.000000   0.000000   0.000000   0.000000
    15  H    0.000000   0.000000   0.872854   0.000000   0.000000   0.000000
    16  H    0.000000   0.000000   0.000000   0.876962   0.000000   0.000000
    17  C    0.000000   0.000000   0.000000   0.000000   4.457901   0.000000
    18  H    0.000000   0.000000   0.000000   0.000000   0.000000   0.852770
    19  H    0.000000   0.000000   0.000000   0.000000   0.000000   0.000000
    20  H    0.000000   0.000000   0.000000   0.000000   0.000000   0.000000
             19         20
     1  C    0.000000   0.000000
     2  H    0.000000   0.000000
     3  H    0.000000   0.000000
     4  H    0.000000   0.000000
     5  C    0.000000   0.000000
     6  H    0.000000   0.000000
     7  H    0.000000   0.000000
     8  C    0.000000   0.000000
     9  H    0.000000   0.000000
    10  H    0.000000   0.000000
    11  C    0.000000   0.000000
    12  H    0.000000   0.000000
    13  H    0.000000   0.000000
    14  C    0.000000   0.000000
    15  H    0.000000   0.000000
    16  H    0.000000   0.000000
    17  C    0.000000   0.000000
    18  H    0.000000   0.000000
    19  H    0.858450   0.000000
    20  H    0.000000   0.853087
 Mulliken atomic charges:
              1
     1  C   -0.457896
     2  H    0.146918
     3  H    0.147228
     4  H    0.141546
     5  C   -0.229449
     6  H    0.123039
     7  H    0.127142
     8  C   -0.259083
     9  H    0.128942
    10  H    0.131614
    11  C   -0.259080
    12  H    0.128943
    13  H    0.131614
    14  C   -0.229452
    15  H    0.127146
    16  H    0.123038
    17  C   -0.457901
    18  H    0.147230
    19  H    0.141550
    20  H    0.146913
 Sum of Mulliken atomic charges =   0.00000
 Mulliken charges with hydrogens summed into heavy atoms:
              1
     1  C   -0.022205
     5  C    0.020732
     8  C    0.001474
    11  C    0.001476
    14  C    0.020732
    17  C   -0.022209
 Sum of Mulliken charges with hydrogens summed into heavy atoms =   0.00000
 Charge=              0.0000 electrons
 Dipole moment (field-independent basis, Debye):
    X=              0.0000    Y=              0.0000    Z=              0.0000  Tot=              0.0000
 N-N= 1.633462466957D+02 E-N=-2.479037237434D+02  KE=-5.603431167070D+01
 Leave Link  601 at Mon Sep 14 19:12:10 2015, MaxMem=  402653184 cpu:       0.1
 (Enter /share/apps/g09/l701.exe)
 Compute integral first derivatives.
 ... and contract with generalized density number  0.
 Leave Link  701 at Mon Sep 14 19:12:12 2015, MaxMem=  402653184 cpu:       0.1
 (Enter /share/apps/g09/l702.exe)
 L702 exits ... SP integral derivatives will be done elsewhere.
 Leave Link  702 at Mon Sep 14 19:12:13 2015, MaxMem=  402653184 cpu:       0.0
 (Enter /share/apps/g09/l703.exe)
 Compute integral first derivatives, UseDBF=F ICtDFT=           0.
 Integral derivatives from FoFDir, PRISM(SPDF).
 Calling FoFJK, ICntrl=      2127 FMM=F ISym2X=0 I1Cent= 0 IOpClX= 0 NMat=1 NMatS=1 NMatT=0.
 FoFCou: FMM=F IPFlag=           0 FMFlag=      100000 FMFlg1=         800
         NFxFlg=           0 DoJE=F BraDBF=F KetDBF=F FulRan=T
         Omega=  0.000000  0.000000  1.000000  0.000000  0.000000 ICntrl=    2127 IOpCl=  0
         NMat0=    1 NMatS0=    1 NMatT0=    0 NMatD0=    1 NMtDS0=    0 NMtDT0=    0
         I1Cent=           0 NGrid=           0.
 Symmetry not used in FoFCou.
 Leave Link  703 at Mon Sep 14 19:12:13 2015, MaxMem=  402653184 cpu:       0.0
 (Enter /share/apps/g09/l716.exe)
 Dipole        =-1.73655593D-05 2.17590354D-06-8.53551728D-06
 ***** Axes restored to original set *****
 -------------------------------------------------------------------
 Center     Atomic                   Forces (Hartrees/Bohr)
 Number     Number              X              Y              Z
 -------------------------------------------------------------------
      1        6           0.002694164   -0.000900197   -0.000106996
      2        1          -0.000614605    0.006052355    0.007979706
      3        1           0.001783392    0.002220477   -0.010093616
      4        1          -0.004059060   -0.008781952    0.001801286
      5        6           0.001349444    0.000166265   -0.000455968
      6        1          -0.000961040   -0.000590486   -0.003996387
      7        1          -0.000494100   -0.000020868    0.004389492
      8        6          -0.002074941   -0.000742215   -0.000156300
      9        1           0.000727639   -0.003402804    0.002807813
     10        1          -0.002079459    0.001716432   -0.004366087
     11        6           0.002074282    0.000740517    0.000156966
     12        1          -0.000727821    0.003402680   -0.002807700
     13        1           0.002079528   -0.001716566    0.004366030
     14        6          -0.001361993   -0.000154647    0.000505708
     15        1           0.000502279    0.000023912   -0.004414265
     16        1           0.000964602    0.000570987    0.003983568
     17        6          -0.002707312    0.000869651    0.000058993
     18        1          -0.001790972   -0.002223088    0.010115309
     19        1           0.004086786    0.008801962   -0.001803751
     20        1           0.000609189   -0.006032414   -0.007963802
 -------------------------------------------------------------------
 Cartesian Forces:  Max     0.010115309 RMS     0.003678742
 Leave Link  716 at Mon Sep 14 19:12:15 2015, MaxMem=  402653184 cpu:       0.0
 (Enter /share/apps/g09/l103.exe)

 GradGradGradGradGradGradGradGradGradGradGradGradGradGradGradGradGradGrad
 Berny optimization.
 Internal  Forces:  Max     0.010117279 RMS     0.003121050
 Search for a local minimum.
 Step number   1 out of a maximum of  110
 All quantities printed in internal units (Hartrees-Bohrs-Radians)
 RMS Force = .31211D-02 SwitMx=.10000D-02 MixMth= 1
 Mixed Optimization -- RFO/linear search
 Second derivative matrix not updated -- first step.
     Eigenvalues ---    0.00270   0.00287   0.00287   0.00391   0.00391
     Eigenvalues ---    0.03388   0.03388   0.03399   0.03400   0.04790
     Eigenvalues ---    0.04790   0.04826   0.04826   0.05588   0.05588
     Eigenvalues ---    0.05773   0.05774   0.08453   0.08453   0.08543
     Eigenvalues ---    0.08543   0.12305   0.12305   0.12364   0.12365
     Eigenvalues ---    0.16000   0.16000   0.16000   0.16000   0.16000
     Eigenvalues ---    0.16000   0.21989   0.21989   0.21991   0.21992
     Eigenvalues ---    0.28743   0.28855   0.28855   0.29579   0.29579
     Eigenvalues ---    0.32083   0.32083   0.32090   0.32096   0.32107
     Eigenvalues ---    0.32113   0.32204   0.32208   0.32208   0.32209
     Eigenvalues ---    0.32220   0.32227   0.32305   0.323111000.00000
     Eigenvalues --- 1000.000001000.000001000.000001000.000001000.00000
     Eigenvalues --- 1000.000001000.000001000.000001000.000001000.00000
     Eigenvalues --- 1000.000001000.000001000.000001000.000001000.00000
     Eigenvalues --- 1000.000001000.000001000.000001000.000001000.00000
     Eigenvalues --- 1000.000001000.000001000.000001000.000001000.00000
     Eigenvalues --- 1000.000001000.000001000.000001000.000001000.00000
     Eigenvalues --- 1000.000001000.000001000.000001000.000001000.00000
     Eigenvalues --- 1000.000001000.000001000.000001000.000001000.00000
     Eigenvalues --- 1000.000001000.000001000.000001000.000001000.00000
 RFO step:  Lambda=-4.06465905D-03 EMin= 2.70055561D-03
 Linear search not attempted -- first point.
 Iteration  1 RMS(Cart)=  0.03458007 RMS(Int)=  0.00043141
 Iteration  2 RMS(Cart)=  0.00053146 RMS(Int)=  0.00008244
 Iteration  3 RMS(Cart)=  0.00000020 RMS(Int)=  0.00008244
 Variable       Old X    -DE/DX   Delta X   Delta X   Delta X     New X
                                 (Linear)    (Quad)   (Total)
    R1        2.10290  -0.00972   0.00000  -0.02970  -0.02970   2.07320
    R2        2.10463  -0.01010   0.00000  -0.03096  -0.03096   2.07368
    R3        2.10430  -0.00934   0.00000  -0.02862  -0.02862   2.07568
    R4        2.88811   0.00026   0.00000   0.00088   0.00088   2.88899
    R5        2.10680  -0.00270   0.00000  -0.00832  -0.00832   2.09848
    R6        2.10637  -0.00415   0.00000  -0.01275  -0.01275   2.09363
    R7        2.90307  -0.00133   0.00000  -0.00453  -0.00453   2.89854
    R8        2.10465  -0.00254   0.00000  -0.00780  -0.00780   2.09684
    R9        2.10693  -0.00485   0.00000  -0.01493  -0.01493   2.09200
   R10        2.90543  -0.00485   0.00000  -0.01664  -0.01664   2.88879
   R11        2.10465  -0.00254   0.00000  -0.00780  -0.00780   2.09684
   R12        2.10693  -0.00485   0.00000  -0.01493  -0.01493   2.09200
   R13        2.90307  -0.00133   0.00000  -0.00454  -0.00454   2.89853
   R14        2.10648  -0.00417   0.00000  -0.01283  -0.01283   2.09366
   R15        2.10669  -0.00268   0.00000  -0.00824  -0.00824   2.09845
   R16        2.88811   0.00027   0.00000   0.00089   0.00089   2.88900
   R17        2.10473  -0.01012   0.00000  -0.03103  -0.03103   2.07371
   R18        2.10442  -0.00937   0.00000  -0.02873  -0.02873   2.07570
   R19        2.10278  -0.00969   0.00000  -0.02961  -0.02961   2.07316
    A1        1.90757  -0.00316   0.00000  -0.02585  -0.02583   1.88175
    A2        1.88836  -0.00243   0.00000  -0.01124  -0.01145   1.87691
    A3        1.93421   0.00180   0.00000   0.00926   0.00916   1.94337
    A4        1.89573  -0.00287   0.00000  -0.01422  -0.01450   1.88123
    A5        1.92790   0.00265   0.00000   0.01427   0.01413   1.94203
    A6        1.90924   0.00382   0.00000   0.02677   0.02651   1.93575
    A7        1.87992   0.00243   0.00000   0.02450   0.02452   1.90443
    A8        1.90630   0.00145   0.00000   0.00296   0.00286   1.90915
    A9        1.99441  -0.00396   0.00000  -0.01469  -0.01472   1.97969
   A10        1.87910  -0.00180   0.00000  -0.01890  -0.01890   1.86020
   A11        1.88467   0.00114   0.00000   0.01103   0.01108   1.89575
   A12        1.91573   0.00083   0.00000  -0.00491  -0.00495   1.91078
   A13        1.86800   0.00337   0.00000   0.03179   0.03181   1.89981
   A14        1.90864   0.00178   0.00000   0.00520   0.00504   1.91368
   A15        1.98846  -0.00506   0.00000  -0.01950  -0.01950   1.96896
   A16        1.88189  -0.00205   0.00000  -0.01982  -0.01990   1.86199
   A17        1.89938   0.00087   0.00000   0.00696   0.00708   1.90646
   A18        1.91415   0.00121   0.00000  -0.00428  -0.00432   1.90983
   A19        1.89938   0.00087   0.00000   0.00696   0.00708   1.90646
   A20        1.91415   0.00121   0.00000  -0.00428  -0.00432   1.90983
   A21        1.98846  -0.00506   0.00000  -0.01950  -0.01949   1.96896
   A22        1.88189  -0.00205   0.00000  -0.01982  -0.01990   1.86199
   A23        1.86800   0.00337   0.00000   0.03178   0.03181   1.89981
   A24        1.90864   0.00178   0.00000   0.00520   0.00504   1.91368
   A25        1.91574   0.00082   0.00000  -0.00493  -0.00497   1.91076
   A26        1.88470   0.00114   0.00000   0.01101   0.01106   1.89576
   A27        1.99441  -0.00397   0.00000  -0.01470  -0.01473   1.97969
   A28        1.87915  -0.00181   0.00000  -0.01893  -0.01893   1.86022
   A29        1.90617   0.00146   0.00000   0.00306   0.00295   1.90912
   A30        1.87995   0.00243   0.00000   0.02449   0.02450   1.90445
   A31        1.92778   0.00266   0.00000   0.01437   0.01423   1.94201
   A32        1.90930   0.00381   0.00000   0.02670   0.02644   1.93574
   A33        1.93425   0.00180   0.00000   0.00926   0.00916   1.94341
   A34        1.89569  -0.00287   0.00000  -0.01422  -0.01450   1.88119
   A35        1.90764  -0.00317   0.00000  -0.02587  -0.02585   1.88179
   A36        1.88835  -0.00243   0.00000  -0.01124  -0.01144   1.87690
    D1       -3.01465  -0.00035   0.00000  -0.00694  -0.00701  -3.02166
    D2       -0.97854  -0.00037   0.00000  -0.01428  -0.01433  -0.99287
    D3        1.17468  -0.00101   0.00000  -0.02892  -0.02897   1.14570
    D4        1.15179   0.00066   0.00000   0.00989   0.00995   1.16174
    D5       -3.09529   0.00063   0.00000   0.00255   0.00264  -3.09265
    D6       -0.94207   0.00000   0.00000  -0.01209  -0.01201  -0.95408
    D7       -0.93403   0.00018   0.00000   0.00182   0.00179  -0.93224
    D8        1.10208   0.00015   0.00000  -0.00551  -0.00552   1.09655
    D9       -3.02789  -0.00048   0.00000  -0.02016  -0.02017  -3.04806
   D10        2.97720   0.00054   0.00000   0.00070   0.00072   2.97792
   D11        0.94309   0.00019   0.00000   0.00403   0.00397   0.94706
   D12       -1.20562   0.00085   0.00000   0.01949   0.01944  -1.18619
   D13        0.88600  -0.00083   0.00000  -0.02882  -0.02877   0.85723
   D14       -1.14811  -0.00118   0.00000  -0.02548  -0.02552  -1.17363
   D15        2.98636  -0.00052   0.00000  -0.01003  -0.01006   2.97631
   D16       -1.15787   0.00022   0.00000  -0.00982  -0.00973  -1.16759
   D17        3.09121  -0.00013   0.00000  -0.00648  -0.00648   3.08473
   D18        0.94250   0.00053   0.00000   0.00897   0.00899   0.95148
   D19        1.05893  -0.00164   0.00000  -0.03268  -0.03264   1.02629
   D20       -0.99588  -0.00037   0.00000  -0.01037  -0.01030  -1.00618
   D21        3.14159   0.00000   0.00000   0.00000   0.00000  -3.14159
   D22        3.14159   0.00000   0.00000   0.00000   0.00000  -3.14159
   D23        1.08678   0.00128   0.00000   0.02231   0.02235   1.10912
   D24       -1.05893   0.00164   0.00000   0.03268   0.03265  -1.02629
   D25       -1.08678  -0.00128   0.00000  -0.02230  -0.02234  -1.10912
   D26        3.14159   0.00000   0.00000   0.00000   0.00000  -3.14159
   D27        0.99588   0.00037   0.00000   0.01038   0.01030   1.00618
   D28       -0.94234  -0.00054   0.00000  -0.00904  -0.00905  -0.95139
   D29       -2.98630   0.00052   0.00000   0.01003   0.01006  -2.97624
   D30        1.20562  -0.00085   0.00000  -0.01945  -0.01940   1.18622
   D31        1.15802  -0.00022   0.00000   0.00975   0.00966   1.16768
   D32       -0.88593   0.00084   0.00000   0.02882   0.02877  -0.85716
   D33       -2.97720  -0.00054   0.00000  -0.00066  -0.00068  -2.97788
   D34       -3.09106   0.00013   0.00000   0.00641   0.00641  -3.08465
   D35        1.14817   0.00118   0.00000   0.02549   0.02552   1.17370
   D36       -0.94309  -0.00019   0.00000  -0.00400  -0.00394  -0.94703
   D37        0.94216   0.00000   0.00000   0.01207   0.01199   0.95415
   D38        3.02790   0.00049   0.00000   0.02015   0.02016   3.04806
   D39       -1.17462   0.00101   0.00000   0.02887   0.02893  -1.14569
   D40        3.09530  -0.00063   0.00000  -0.00253  -0.00262   3.09268
   D41       -1.10215  -0.00015   0.00000   0.00554   0.00555  -1.09660
   D42        0.97852   0.00037   0.00000   0.01427   0.01432   0.99283
   D43       -1.15177  -0.00066   0.00000  -0.00987  -0.00993  -1.16170
   D44        0.93397  -0.00018   0.00000  -0.00179  -0.00176   0.93221
   D45        3.01464   0.00035   0.00000   0.00693   0.00700   3.02164
         Item               Value     Threshold  Converged?
 Maximum Force            0.010117     0.000450     NO 
 RMS     Force            0.003121     0.000300     NO 
 Maximum Displacement     0.112598     0.001800     NO 
 RMS     Displacement     0.034649     0.001200     NO 
 Predicted change in Energy=-2.089763D-03
 GradGradGradGradGradGradGradGradGradGradGradGradGradGradGradGradGradGrad

 Leave Link  103 at Mon Sep 14 19:12:15 2015, MaxMem=  402653184 cpu:       0.0
 (Enter /share/apps/g09/l202.exe)
                          Input orientation:                          
 ---------------------------------------------------------------------
 Center     Atomic      Atomic             Coordinates (Angstroms)
 Number     Number       Type             X           Y           Z
 ---------------------------------------------------------------------
      1          6           0        1.692119    2.082506    0.736468
      2          1           0        1.923136    1.264421    0.042945
      3          1           0        1.773678    1.689870    1.757912
      4          1           0        2.465655    2.852016    0.610040
      5          6           0        0.300849    2.658985    0.473349
      6          1           0        0.154323    3.559015    1.107084
      7          1           0        0.236837    2.999449   -0.578994
      8          6           0       -0.834167    1.667980    0.760264
      9          1           0       -1.802414    2.207663    0.710694
     10          1           0       -0.738380    1.281244    1.793119
     11          6           0       -0.860041    0.496129   -0.221041
     12          1           0        0.108205   -0.043554   -0.171470
     13          1           0       -0.955826    0.882865   -1.253896
     14          6           0       -1.995053   -0.494875    0.065870
     15          1           0       -1.931083   -0.835264    1.118258
     16          1           0       -1.848500   -1.394926   -0.567796
     17          6           0       -3.386326    0.081590   -0.197301
     18          1           0       -3.467860    0.474133   -1.218798
     19          1           0       -4.159860   -0.687935   -0.070869
     20          1           0       -3.617391    0.899688    0.496160
 ---------------------------------------------------------------------
                    Distance matrix (angstroms):
                    1          2          3          4          5
     1  C    0.000000
     2  H    1.097089   0.000000
     3  H    1.097343   1.773261   0.000000
     4  H    1.098402   1.770983   1.773986   0.000000
     5  C    1.528788   2.182171   2.181401   2.177689   0.000000
     6  H    2.163851   3.086462   2.557262   2.467621   1.110470
     7  H    2.165426   2.498146   3.088366   2.530448   1.107899
     8  C    2.560179   2.877520   2.792245   3.509035   1.533842
     9  H    3.496868   3.900681   3.762074   4.317607   2.164194
    10  H    2.768728   3.185445   2.545319   3.759367   2.172547
    11  C    3.153876   2.899316   3.503962   4.159465   2.551037
    12  H    2.802368   2.247387   3.082381   3.814794   2.785071
    13  H    3.523110   3.180535   4.143964   4.365586   2.777987
    14  C    4.548388   4.295096   4.673270   5.603188   3.922249
    15  H    4.667626   4.518847   4.528875   5.760696   4.196094
    16  H    5.131239   4.655144   5.295758   6.167312   4.705090
    17  C    5.537706   5.444923   5.747613   6.524778   4.548405
    18  H    5.747635   5.592797   6.149189   6.648727   4.673339
    19  H    6.524783   6.389639   6.648704   7.542701   5.603211
    20  H    5.444970   5.570985   5.592855   6.389679   4.295142
                    6          7          8          9         10
     6  H    0.000000
     7  H    1.778421   0.000000
     8  C    2.161806   2.171053   0.000000
     9  H    2.410829   2.539442   1.109602   0.000000
    10  H    2.540827   3.087102   1.107036   1.778219   0.000000
    11  C    3.489143   2.756426   1.528681   2.164612   2.165190
    12  H    3.823000   3.072863   2.164612   3.081664   2.516229
    13  H    3.737437   2.521481   2.165191   2.516230   3.080632
    14  C    4.705100   4.196127   2.551036   2.785071   2.777988
    15  H    4.864024   4.720759   2.756378   3.072795   2.521425
    16  H    5.599826   4.864081   3.489127   3.822997   3.737401
    17  C    5.131286   4.667644   3.153899   2.802395   3.523145
    18  H    5.295888   4.528945   3.504040   3.082495   4.144047
    19  H    6.167360   5.760724   4.159490   3.814824   4.365620
    20  H    4.655220   4.518852   2.899372   2.247435   3.180627
                   11         12         13         14         15
    11  C    0.000000
    12  H    1.109601   0.000000
    13  H    1.107036   1.778219   0.000000
    14  C    1.533838   2.164189   2.172543   0.000000
    15  H    2.171051   2.539469   3.087105   1.107917   0.000000
    16  H    2.161800   2.410803   2.540853   1.110451   1.778432
    17  C    2.560179   3.496866   2.768712   1.528794   2.165421
    18  H    2.792261   3.762065   2.545311   2.181400   3.088371
    19  H    3.509041   4.317607   3.759362   2.177696   2.530450
    20  H    2.877537   3.900705   3.185421   2.182186   2.498139
                   16         17         18         19         20
    16  H    0.000000
    17  C    2.163856   0.000000
    18  H    2.557247   1.097358   0.000000
    19  H    2.467622   1.098412   1.773981   0.000000
    20  H    3.086459   1.097070   1.773284   1.770972   0.000000
 Stoichiometry    C6H14
 Framework group  C1[X(C6H14)]
 Deg. of freedom    54
 Full point group                 C1      NOp   1
 Largest Abelian subgroup         C1      NOp   1
 Largest concise Abelian subgroup C1      NOp   1
                         Standard orientation:                         
 ---------------------------------------------------------------------
 Center     Atomic      Atomic             Coordinates (Angstroms)
 Number     Number       Type             X           Y           Z
 ---------------------------------------------------------------------
      1          6           0        2.725011   -0.483837    0.082112
      2          1           0        2.376817   -1.384789   -0.438129
      3          1           0        2.759653   -0.708309    1.155692
      4          1           0        3.752116   -0.284603   -0.252326
      5          6           0        1.816021    0.711227   -0.205552
      6          1           0        2.267623    1.625679    0.233740
      7          1           0        1.763758    0.878605   -1.299487
      8          6           0        0.397760    0.547593    0.355189
      9          1           0       -0.140459    1.512868    0.256288
     10          1           0        0.449293    0.321900    1.437749
     11          6           0       -0.397753   -0.547585   -0.355170
     12          1           0        0.140465   -1.512859   -0.256267
     13          1           0       -0.449285   -0.321893   -1.437730
     14          6           0       -1.816012   -0.711221    0.205567
     15          1           0       -1.763737   -0.878508    1.299533
     16          1           0       -2.267590   -1.625695   -0.233654
     17          6           0       -2.725020    0.483826   -0.082144
     18          1           0       -2.759698    0.708200   -1.155758
     19          1           0       -3.752131    0.284579    0.252301
     20          1           0       -2.376870    1.384807    0.438037
 ---------------------------------------------------------------------
 Rotational constants (GHZ):      8.8809618      1.4497307      1.3474591
 Leave Link  202 at Mon Sep 14 19:12:15 2015, MaxMem=  402653184 cpu:       0.0
 (Enter /share/apps/g09/l301.exe)
 Standard basis: VSTO-6G (5D, 7F)
 Ernie: Thresh=  0.10000D-02 Tol=  0.10000D-05 Strict=F.
  NNHCO=     0 NNPyr=     0 NCTC=     0               EPep=         0.000000000
    EC=       126.643234767  ECS=         3.220428877   EG=         0.309720804
   EHC=         0.000452244  EAt=       -31.187935768  AtH=         2.796400831
 EPDDG=         0.000000000  ECC=       130.173836691 EAtT=        33.984336599
 There are    38 symmetry adapted basis functions of A   symmetry.
 Integral buffers will be    131072 words long.
 Regular integral format.
 Two-electron integral symmetry is turned off.
    38 basis functions,   228 primitive gaussians,    38 cartesian basis functions
    19 alpha electrons       19 beta electrons
       nuclear repulsion energy       164.1581732904 Hartrees.
 IExCor=    0 DFT=F Ex=HF Corr=None ExCW=0 ScaHFX=  1.000000
 ScaDFX=  1.000000  1.000000  1.000000  1.000000 ScalE2=  1.000000  1.000000
 IRadAn=      0 IRanWt=     -1 IRanGd=            0 ICorTp=0
 Leave Link  301 at Mon Sep 14 19:12:15 2015, MaxMem=  402653184 cpu:       0.1
 (Enter /share/apps/g09/l302.exe)
 Do NDO integrals.
 NPDir=0 NMtPBC=     1 NCelOv=     1 NCel=       1 NClECP=     1 NCelD=      1
         NCelK=      1 NCelE2=     1 NClLst=     1 CellRange=     0.0.
 One-electron integrals computed using PRISM.
 NBasis=    38 RedAO= F  NBF=    38
 NBsUse=    38 1.00D-04 NBFU=    38
 Leave Link  302 at Mon Sep 14 19:12:17 2015, MaxMem=  402653184 cpu:       0.1
 (Enter /share/apps/g09/l303.exe)
 DipDrv:  MaxL=1.
 Leave Link  303 at Mon Sep 14 19:12:17 2015, MaxMem=  402653184 cpu:       0.0
 (Enter /share/apps/g09/l401.exe)
 Initial guess read from the read-write file.
 B after Tr=     0.000000    0.000000    0.000000
         Rot=    1.000000    0.000000    0.000000    0.000000 Ang=   0.00 deg.
 Guess basis will be translated and rotated to current coordinates.
 Initial guess orbital symmetries:
       Occupied  (A) (A) (A) (A) (A) (A) (A) (A) (A) (A) (A) (A)
                 (A) (A) (A) (A) (A) (A) (A)
       Virtual   (A) (A) (A) (A) (A) (A) (A) (A) (A) (A) (A) (A)
                 (A) (A) (A) (A) (A) (A) (A)
 The electronic state of the initial guess is 1-A.
 Leave Link  401 at Mon Sep 14 19:12:22 2015, MaxMem=  402653184 cpu:       0.2
 (Enter /share/apps/g09/l502.exe)
 Closed shell SCF:
 Requested convergence on RMS density matrix=1.00D-08 within 128 cycles.
 Requested convergence on MAX density matrix=1.00D-06.
 Requested convergence on             energy=1.00D-06.
 No special actions if energy rises.
 Using DIIS extrapolation, IDIIS=  1040.
 Overlap will be assumed to be unity.
 Two-electron integral symmetry not used.
 Keep J ints in memory in canonical form, NReq=884654.
 IEnd=       81865 IEndB=       81865 NGot=   402653184 MDV=   402586639
 LenX=   402586639 LenY=   402584754
 Symmetry not used in FoFDir.
 MinBra= 0 MaxBra= 1 Meth=40.
 IRaf=       0 NMat=   1 IRICut=       1 DoRegI=T DoRafI=F ISym2E= 0 JSym2E=0.

 Cycle   1  Pass 1  IDiag  1:
 E=-0.538599499246573E-01
 DIIS: error= 2.33D-03 at cycle   1 NSaved=   1.
 NSaved= 1 IEnMin= 1 EnMin=-0.538599499246573E-01 IErMin= 1 ErrMin= 2.33D-03
 ErrMax= 2.33D-03 EMaxC= 1.00D-01 BMatC= 2.96D-04 BMatP= 2.96D-04
 IDIUse=3 WtCom= 9.77D-01 WtEn= 2.33D-02
 Coeff-Com:  0.100D+01
 Coeff-En:   0.100D+01
 Coeff:      0.100D+01
 GapD=    2.000 DampG=2.000 DampE=1.000 DampFc=2.0000 IDamp=-1.
 RMSDP=8.26D-04 MaxDP=6.03D-03              OVMax= 0.00D+00

 Cycle   2  Pass 1  IDiag  3:
 E=-0.549137872480117E-01 Delta-E=       -0.001053837323 Rises=F Damp=F
 DIIS: error= 1.01D-03 at cycle   2 NSaved=   2.
 NSaved= 2 IEnMin= 2 EnMin=-0.549137872480117E-01 IErMin= 2 ErrMin= 1.01D-03
 ErrMax= 1.01D-03 EMaxC= 1.00D-01 BMatC= 4.80D-05 BMatP= 2.96D-04
 IDIUse=3 WtCom= 9.90D-01 WtEn= 1.01D-02
 Coeff-Com: -0.602D+00 0.160D+01
 Coeff-En:   0.000D+00 0.100D+01
 Coeff:     -0.596D+00 0.160D+01
 Gap=     0.557 Goal=   None    Shift=    0.000
 RMSDP=5.69D-04 MaxDP=4.36D-03 DE=-1.05D-03 OVMax= 0.00D+00

 Cycle   3  Pass 1  IDiag  3:
 E=-0.551461629654284E-01 Delta-E=       -0.000232375717 Rises=F Damp=F
 DIIS: error= 1.31D-04 at cycle   3 NSaved=   3.
 NSaved= 3 IEnMin= 3 EnMin=-0.551461629654284E-01 IErMin= 3 ErrMin= 1.31D-04
 ErrMax= 1.31D-04 EMaxC= 1.00D-01 BMatC= 9.73D-07 BMatP= 4.80D-05
 IDIUse=3 WtCom= 9.99D-01 WtEn= 1.31D-03
 Coeff-Com:  0.242D+00-0.723D+00 0.148D+01
 Coeff-En:   0.000D+00 0.000D+00 0.100D+01
 Coeff:      0.241D+00-0.722D+00 0.148D+01
 Gap=     0.557 Goal=   None    Shift=    0.000
 RMSDP=9.38D-05 MaxDP=6.52D-04 DE=-2.32D-04 OVMax= 0.00D+00

 Cycle   4  Pass 1  IDiag  3:
 E=-0.551513276220135E-01 Delta-E=       -0.000005164657 Rises=F Damp=F
 DIIS: error= 1.42D-05 at cycle   4 NSaved=   4.
 NSaved= 4 IEnMin= 4 EnMin=-0.551513276220135E-01 IErMin= 4 ErrMin= 1.42D-05
 ErrMax= 1.42D-05 EMaxC= 1.00D-01 BMatC= 1.80D-08 BMatP= 9.73D-07
 IDIUse=1 WtCom= 1.00D+00 WtEn= 0.00D+00
 Coeff-Com: -0.993D-01 0.299D+00-0.656D+00 0.146D+01
 Coeff:     -0.993D-01 0.299D+00-0.656D+00 0.146D+01
 Gap=     0.557 Goal=   None    Shift=    0.000
 RMSDP=1.15D-05 MaxDP=8.41D-05 DE=-5.16D-06 OVMax= 0.00D+00

 Cycle   5  Pass 1  IDiag  3:
 E=-0.551514327078451E-01 Delta-E=       -0.000000105086 Rises=F Damp=F
 DIIS: error= 5.77D-06 at cycle   5 NSaved=   5.
 NSaved= 5 IEnMin= 5 EnMin=-0.551514327078451E-01 IErMin= 5 ErrMin= 5.77D-06
 ErrMax= 5.77D-06 EMaxC= 1.00D-01 BMatC= 2.49D-09 BMatP= 1.80D-08
 IDIUse=1 WtCom= 1.00D+00 WtEn= 0.00D+00
 Coeff-Com:  0.653D-01-0.197D+00 0.439D+00-0.120D+01 0.189D+01
 Coeff:      0.653D-01-0.197D+00 0.439D+00-0.120D+01 0.189D+01
 Gap=     0.557 Goal=   None    Shift=    0.000
 RMSDP=5.93D-06 MaxDP=4.80D-05 DE=-1.05D-07 OVMax= 0.00D+00

 Cycle   6  Pass 1  IDiag  3:
 E=-0.551514517328826E-01 Delta-E=       -0.000000019025 Rises=F Damp=F
 DIIS: error= 1.52D-06 at cycle   6 NSaved=   6.
 NSaved= 6 IEnMin= 6 EnMin=-0.551514517328826E-01 IErMin= 6 ErrMin= 1.52D-06
 ErrMax= 1.52D-06 EMaxC= 1.00D-01 BMatC= 2.00D-10 BMatP= 2.49D-09
 IDIUse=1 WtCom= 1.00D+00 WtEn= 0.00D+00
 Coeff-Com: -0.328D-01 0.989D-01-0.221D+00 0.638D+00-0.124D+01 0.176D+01
 Coeff:     -0.328D-01 0.989D-01-0.221D+00 0.638D+00-0.124D+01 0.176D+01
 Gap=     0.557 Goal=   None    Shift=    0.000
 RMSDP=1.87D-06 MaxDP=1.77D-05 DE=-1.90D-08 OVMax= 0.00D+00

 Cycle   7  Pass 1  IDiag  3:
 E=-0.551514532684223E-01 Delta-E=       -0.000000001536 Rises=F Damp=F
 DIIS: error= 2.90D-07 at cycle   7 NSaved=   7.
 NSaved= 7 IEnMin= 7 EnMin=-0.551514532684223E-01 IErMin= 7 ErrMin= 2.90D-07
 ErrMax= 2.90D-07 EMaxC= 1.00D-01 BMatC= 6.99D-12 BMatP= 2.00D-10
 IDIUse=1 WtCom= 1.00D+00 WtEn= 0.00D+00
 Coeff-Com:  0.112D-01-0.337D-01 0.753D-01-0.221D+00 0.450D+00-0.769D+00
 Coeff-Com:  0.149D+01
 Coeff:      0.112D-01-0.337D-01 0.753D-01-0.221D+00 0.450D+00-0.769D+00
 Coeff:      0.149D+01
 Gap=     0.557 Goal=   None    Shift=    0.000
 RMSDP=2.85D-07 MaxDP=2.43D-06 DE=-1.54D-09 OVMax= 0.00D+00

 Cycle   8  Pass 1  IDiag  3:
 E=-0.551514533123907E-01 Delta-E=       -0.000000000044 Rises=F Damp=F
 DIIS: error= 6.29D-08 at cycle   8 NSaved=   8.
 NSaved= 8 IEnMin= 8 EnMin=-0.551514533123907E-01 IErMin= 8 ErrMin= 6.29D-08
 ErrMax= 6.29D-08 EMaxC= 1.00D-01 BMatC= 2.67D-13 BMatP= 6.99D-12
 IDIUse=1 WtCom= 1.00D+00 WtEn= 0.00D+00
 Coeff-Com: -0.234D-02 0.703D-02-0.157D-01 0.462D-01-0.967D-01 0.176D+00
 Coeff-Com: -0.481D+00 0.137D+01
 Coeff:     -0.234D-02 0.703D-02-0.157D-01 0.462D-01-0.967D-01 0.176D+00
 Coeff:     -0.481D+00 0.137D+01
 Gap=     0.557 Goal=   None    Shift=    0.000
 RMSDP=5.06D-08 MaxDP=3.75D-07 DE=-4.40D-11 OVMax= 0.00D+00

 Cycle   9  Pass 1  IDiag  3:
 E=-0.551514533138970E-01 Delta-E=       -0.000000000002 Rises=F Damp=F
 DIIS: error= 1.16D-08 at cycle   9 NSaved=   9.
 NSaved= 9 IEnMin= 9 EnMin=-0.551514533138970E-01 IErMin= 9 ErrMin= 1.16D-08
 ErrMax= 1.16D-08 EMaxC= 1.00D-01 BMatC= 1.19D-14 BMatP= 2.67D-13
 IDIUse=1 WtCom= 1.00D+00 WtEn= 0.00D+00
 Coeff-Com:  0.400D-03-0.120D-02 0.267D-02-0.798D-02 0.173D-01-0.332D-01
 Coeff-Com:  0.115D+00-0.499D+00 0.141D+01
 Coeff:      0.400D-03-0.120D-02 0.267D-02-0.798D-02 0.173D-01-0.332D-01
 Coeff:      0.115D+00-0.499D+00 0.141D+01
 Gap=     0.557 Goal=   None    Shift=    0.000
 RMSDP=9.92D-09 MaxDP=5.83D-08 DE=-1.51D-12 OVMax= 0.00D+00

 Cycle  10  Pass 2  IDiag  1:
 RMSDP=9.92D-09 MaxDP=5.83D-08 DE=-1.51D-12 OVMax= 0.00D+00

 SCF Done:  E(RPM6) = -0.551514533139E-01 A.U. after   10 cycles
             Convg  =    0.9923D-08             -V/T =  0.9990
 KE=-5.610607427206D+01 PE=-2.493357923814D+02 EE= 1.412285419098D+02
 Leave Link  502 at Mon Sep 14 19:12:26 2015, MaxMem=  402653184 cpu:       1.6
 (Enter /share/apps/g09/l701.exe)
 Compute integral first derivatives.
 ... and contract with generalized density number  0.
 Leave Link  701 at Mon Sep 14 19:12:26 2015, MaxMem=  402653184 cpu:       0.1
 (Enter /share/apps/g09/l702.exe)
 L702 exits ... SP integral derivatives will be done elsewhere.
 Leave Link  702 at Mon Sep 14 19:12:28 2015, MaxMem=  402653184 cpu:       0.0
 (Enter /share/apps/g09/l703.exe)
 Compute integral first derivatives, UseDBF=F ICtDFT=           0.
 Integral derivatives from FoFDir, PRISM(SPDF).
 Calling FoFJK, ICntrl=      2127 FMM=F ISym2X=0 I1Cent= 0 IOpClX= 0 NMat=1 NMatS=1 NMatT=0.
 FoFCou: FMM=F IPFlag=           0 FMFlag=      100000 FMFlg1=         800
         NFxFlg=           0 DoJE=F BraDBF=F KetDBF=F FulRan=T
         Omega=  0.000000  0.000000  1.000000  0.000000  0.000000 ICntrl=    2127 IOpCl=  0
         NMat0=    1 NMatS0=    1 NMatT0=    0 NMatD0=    1 NMtDS0=    0 NMtDT0=    0
         I1Cent=           0 NGrid=           0.
 Symmetry not used in FoFCou.
 Leave Link  703 at Mon Sep 14 19:12:28 2015, MaxMem=  402653184 cpu:       0.0
 (Enter /share/apps/g09/l716.exe)
 Dipole        =-1.74272679D-05-8.80887683D-06-2.55408785D-07
 ***** Axes restored to original set *****
 -------------------------------------------------------------------
 Center     Atomic                   Forces (Hartrees/Bohr)
 Number     Number              X              Y              Z
 -------------------------------------------------------------------
      1        6          -0.000297377    0.001013535    0.000084748
      2        1           0.000084590    0.000304652    0.001017954
      3        1           0.000473068    0.000075131   -0.001116720
      4        1          -0.000804027   -0.001382698    0.000346825
      5        6           0.001243665    0.000846736    0.000088447
      6        1           0.000200600   -0.000293596   -0.001415428
      7        1           0.000048900    0.000987109    0.000450543
      8        6          -0.000374975    0.001298422    0.002409406
      9        1           0.000491472   -0.000424677    0.001304353
     10        1          -0.000929977    0.000719841    0.000490213
     11        6           0.000376206   -0.001297693   -0.002410965
     12        1          -0.000491056    0.000424777   -0.001304388
     13        1           0.000930199   -0.000719586   -0.000490336
     14        6          -0.001249510   -0.000839022   -0.000071800
     15        1          -0.000048347   -0.000987026   -0.000457978
     16        1          -0.000200435    0.000287716    0.001411044
     17        6           0.000296524   -0.001026010   -0.000099566
     18        1          -0.000472834   -0.000074339    0.001124076
     19        1           0.000807133    0.001385291   -0.000346114
     20        1          -0.000083819   -0.000298563   -0.001014313
 -------------------------------------------------------------------
 Cartesian Forces:  Max     0.002410965 RMS     0.000883059
 Leave Link  716 at Mon Sep 14 19:12:28 2015, MaxMem=  402653184 cpu:       0.0
 (Enter /share/apps/g09/l103.exe)

 GradGradGradGradGradGradGradGradGradGradGradGradGradGradGradGradGradGrad
 Berny optimization.
 Using GEDIIS/GDIIS optimizer.
 Internal  Forces:  Max     0.004762445 RMS     0.000749392
 Search for a local minimum.
 Step number   2 out of a maximum of  110
 All quantities printed in internal units (Hartrees-Bohrs-Radians)
 RMS Force = .74939D-03 SwitMx=.10000D-02 MixMth= 2
 Mixed Optimization -- En-DIIS/RFO-DIIS
 Update second derivatives using D2CorX and points    1    2
 DE= -2.26D-03 DEPred=-2.09D-03 R= 1.08D+00
 SS=  1.41D+00  RLast= 1.68D-01 DXNew= 5.0454D-01 5.0538D-01
 Trust test= 1.08D+00 RLast= 1.68D-01 DXMaxT set to 5.05D-01
 Use linear search instead of GDIIS.
     Eigenvalues ---    0.00270   0.00285   0.00287   0.00391   0.00391
     Eigenvalues ---    0.03442   0.03446   0.03451   0.03571   0.04487
     Eigenvalues ---    0.04773   0.04795   0.04803   0.05470   0.05481
     Eigenvalues ---    0.05535   0.05535   0.08315   0.08386   0.08448
     Eigenvalues ---    0.08565   0.12170   0.12201   0.12291   0.12297
     Eigenvalues ---    0.15137   0.16000   0.16000   0.16000   0.16000
     Eigenvalues ---    0.16021   0.20689   0.21915   0.21926   0.21976
     Eigenvalues ---    0.27934   0.28832   0.28855   0.29568   0.29579
     Eigenvalues ---    0.31752   0.32083   0.32092   0.32096   0.32110
     Eigenvalues ---    0.32118   0.32188   0.32206   0.32208   0.32213
     Eigenvalues ---    0.32224   0.32268   0.32308   0.348761000.00000
     Eigenvalues --- 1000.000001000.000001000.000001000.000001000.00000
     Eigenvalues --- 1000.000001000.000001000.000001000.000001000.00000
     Eigenvalues --- 1000.000001000.000001000.000001000.000001000.00000
     Eigenvalues --- 1000.000001000.000001000.000001000.000001000.00000
     Eigenvalues --- 1000.000001000.000001000.000001000.000001000.00000
     Eigenvalues --- 1000.000001000.000001000.000001000.000001000.00000
     Eigenvalues --- 1000.000001000.000001000.000001000.000001000.00000
     Eigenvalues --- 1000.000001000.000001000.000001000.000001000.00000
     Eigenvalues --- 1000.000001000.000001000.000001000.000001000.00000
 RFO step:  Lambda=-3.75827785D-04 EMin= 2.70055561D-03
 Quartic linear search produced a step of  0.11957.
 Iteration  1 RMS(Cart)=  0.02128394 RMS(Int)=  0.00022348
 Iteration  2 RMS(Cart)=  0.00030233 RMS(Int)=  0.00001549
 Iteration  3 RMS(Cart)=  0.00000006 RMS(Int)=  0.00001549
 Variable       Old X    -DE/DX   Delta X   Delta X   Delta X     New X
                                 (Linear)    (Quad)   (Total)
    R1        2.07320  -0.00085  -0.00355  -0.00196  -0.00551   2.06769
    R2        2.07368  -0.00103  -0.00370  -0.00254  -0.00624   2.06744
    R3        2.07568  -0.00157  -0.00342  -0.00450  -0.00792   2.06775
    R4        2.88899  -0.00044   0.00010  -0.00170  -0.00159   2.88740
    R5        2.09848  -0.00107  -0.00099  -0.00346  -0.00445   2.09403
    R6        2.09363  -0.00013  -0.00152  -0.00002  -0.00154   2.09208
    R7        2.89854   0.00181  -0.00054   0.00715   0.00661   2.90515
    R8        2.09684  -0.00069  -0.00093  -0.00215  -0.00308   2.09376
    R9        2.09200   0.00013  -0.00179   0.00094  -0.00085   2.09115
   R10        2.88879   0.00476  -0.00199   0.01908   0.01709   2.90588
   R11        2.09684  -0.00069  -0.00093  -0.00214  -0.00308   2.09377
   R12        2.09200   0.00013  -0.00179   0.00094  -0.00085   2.09115
   R13        2.89853   0.00181  -0.00054   0.00716   0.00662   2.90515
   R14        2.09366  -0.00013  -0.00153  -0.00004  -0.00157   2.09209
   R15        2.09845  -0.00106  -0.00099  -0.00343  -0.00442   2.09403
   R16        2.88900  -0.00045   0.00011  -0.00171  -0.00161   2.88740
   R17        2.07371  -0.00104  -0.00371  -0.00256  -0.00627   2.06743
   R18        2.07570  -0.00158  -0.00343  -0.00451  -0.00795   2.06775
   R19        2.07316  -0.00085  -0.00354  -0.00194  -0.00548   2.06769
    A1        1.88175  -0.00073  -0.00309  -0.00574  -0.00882   1.87292
    A2        1.87691  -0.00034  -0.00137  -0.00068  -0.00209   1.87482
    A3        1.94337   0.00043   0.00110   0.00248   0.00356   1.94693
    A4        1.88123  -0.00053  -0.00173  -0.00284  -0.00463   1.87660
    A5        1.94203   0.00063   0.00169   0.00321   0.00487   1.94691
    A6        1.93575   0.00045   0.00317   0.00305   0.00617   1.94192
    A7        1.90443   0.00022   0.00293  -0.00126   0.00168   1.90611
    A8        1.90915   0.00046   0.00034   0.00420   0.00453   1.91368
    A9        1.97969  -0.00108  -0.00176  -0.00290  -0.00466   1.97503
   A10        1.86020  -0.00072  -0.00226  -0.01022  -0.01247   1.84773
   A11        1.89575   0.00058   0.00132   0.00343   0.00476   1.90051
   A12        1.91078   0.00055  -0.00059   0.00618   0.00559   1.91636
   A13        1.89981   0.00019   0.00380  -0.00099   0.00282   1.90263
   A14        1.91368   0.00008   0.00060   0.00155   0.00211   1.91579
   A15        1.96896  -0.00047  -0.00233   0.00136  -0.00099   1.96797
   A16        1.86199  -0.00075  -0.00238  -0.01357  -0.01595   1.84604
   A17        1.90646   0.00031   0.00085   0.00248   0.00334   1.90980
   A18        1.90983   0.00062  -0.00052   0.00825   0.00772   1.91755
   A19        1.90646   0.00031   0.00085   0.00248   0.00334   1.90980
   A20        1.90983   0.00062  -0.00052   0.00824   0.00771   1.91755
   A21        1.96896  -0.00047  -0.00233   0.00135  -0.00099   1.96798
   A22        1.86199  -0.00075  -0.00238  -0.01357  -0.01595   1.84604
   A23        1.89981   0.00019   0.00380  -0.00098   0.00282   1.90263
   A24        1.91368   0.00008   0.00060   0.00155   0.00212   1.91579
   A25        1.91076   0.00055  -0.00059   0.00620   0.00560   1.91636
   A26        1.89576   0.00058   0.00132   0.00342   0.00475   1.90051
   A27        1.97969  -0.00108  -0.00176  -0.00290  -0.00466   1.97503
   A28        1.86022  -0.00072  -0.00226  -0.01023  -0.01249   1.84773
   A29        1.90912   0.00046   0.00035   0.00422   0.00456   1.91368
[...]
 ! D19   D(5,8,11,12)           58.3268         -DE/DX =    0.0                 !
 ! D20   D(5,8,11,13)          -57.2775         -DE/DX =    0.0                 !
 ! D21   D(5,8,11,14)          179.9999         -DE/DX =    0.0                 !
 ! D22   D(9,8,11,12)          179.9999         -DE/DX =    0.0                 !
 ! D23   D(9,8,11,13)           64.3957         -DE/DX =    0.0                 !
 ! D24   D(9,8,11,14)          -58.3269         -DE/DX =    0.0                 !
 ! D25   D(10,8,11,12)         -64.3958         -DE/DX =    0.0                 !
 ! D26   D(10,8,11,13)         179.9999         -DE/DX =    0.0                 !
 ! D27   D(10,8,11,14)          57.2774         -DE/DX =    0.0                 !
 ! D28   D(8,11,14,15)         -49.3684         -DE/DX =    0.0                 !
 ! D29   D(8,11,14,16)        -164.7546         -DE/DX =    0.0                 !
 ! D30   D(8,11,14,17)          73.4643         -DE/DX =    0.0                 !
 ! D31   D(12,11,14,15)         72.4189         -DE/DX =    0.0                 !
 ! D32   D(12,11,14,16)        -42.9673         -DE/DX =    0.0                 !
 ! D33   D(12,11,14,17)       -164.7484         -DE/DX =    0.0                 !
 ! D34   D(13,11,14,15)       -172.0783         -DE/DX =    0.0                 !
 ! D35   D(13,11,14,16)         72.5355         -DE/DX =    0.0                 !
 ! D36   D(13,11,14,17)        -49.2455         -DE/DX =    0.0                 !
 ! D37   D(11,14,17,18)         59.4076         -DE/DX =    0.0                 !
 ! D38   D(11,14,17,19)        179.5057         -DE/DX =    0.0                 !
 ! D39   D(11,14,17,20)        -60.4698         -DE/DX =    0.0                 !
 ! D40   D(15,14,17,18)       -177.6739         -DE/DX =    0.0                 !
 ! D41   D(15,14,17,19)        -57.5758         -DE/DX =    0.0                 !
 ! D42   D(15,14,17,20)         62.4487         -DE/DX =    0.0                 !
 ! D43   D(16,14,17,18)        -62.2103         -DE/DX =    0.0                 !
 ! D44   D(16,14,17,19)         57.8878         -DE/DX =    0.0                 !
 ! D45   D(16,14,17,20)        177.9123         -DE/DX =    0.0                 !
 --------------------------------------------------------------------------------
 GradGradGradGradGradGradGradGradGradGradGradGradGradGradGradGradGradGrad

 Largest change from initial coordinates is atom   19       4.851 Angstoms.
 Leave Link  103 at Mon Sep 14 19:13:31 2015, MaxMem=  402653184 cpu:       0.0
 (Enter /share/apps/g09/l202.exe)
                          Input orientation:                          
 ---------------------------------------------------------------------
 Center     Atomic      Atomic             Coordinates (Angstroms)
 Number     Number       Type             X           Y           Z
 ---------------------------------------------------------------------
      1          6           0        1.705312    2.097535    0.765868
      2          1           0        1.916289    1.210004    0.158377
      3          1           0        1.815604    1.806194    1.816413
      4          1           0        2.480105    2.839745    0.545576
      5          6           0        0.310798    2.651862    0.481476
      6          1           0        0.149545    3.567337    1.084785
      7          1           0        0.245736    2.975049   -0.575921
      8          6           0       -0.807242    1.645147    0.789187
      9          1           0       -1.777296    2.178131    0.830593
     10          1           0       -0.658742    1.215222    1.798191
     11          6           0       -0.886969    0.518954   -0.249988
     12          1           0        0.083086   -0.014029   -0.291395
     13          1           0       -1.035469    0.948879   -1.258992
     14          6           0       -2.005007   -0.487761    0.057724
     15          1           0       -1.939945   -0.810949    1.115121
     16          1           0       -1.843754   -1.403237   -0.545586
     17          6           0       -3.399522    0.066564   -0.226667
     18          1           0       -3.509816    0.357904   -1.277213
     19          1           0       -4.174314   -0.675646   -0.006374
     20          1           0       -3.610499    0.954096    0.380823
 ---------------------------------------------------------------------
                    Distance matrix (angstroms):
                    1          2          3          4          5
     1  C    0.000000
     2  H    1.096024   0.000000
     3  H    1.095760   1.764841   0.000000
     4  H    1.095312   1.767447   1.767715   0.000000
     5  C    1.527359   2.181960   2.182121   2.178372   0.000000
     6  H    2.163895   3.088145   2.532323   2.500329   1.108188
     7  H    2.168131   2.538765   3.090950   2.503691   1.107598
     8  C    2.553062   2.829291   2.821427   3.506146   1.535634
     9  H    3.484142   3.877076   3.744211   4.317920   2.169433
    10  H    2.726338   3.052835   2.544006   3.749730   2.176621
    11  C    3.200594   2.915916   3.637431   4.166075   2.553229
    12  H    2.864982   2.249707   3.279891   3.819718   2.784988
    13  H    3.596018   3.284813   4.280389   4.380765   2.782411
    14  C    4.577302   4.274237   4.790855   5.605937   3.924252
    15  H    4.676447   4.457595   4.630918   5.760971   4.178326
    16  H    5.154724   4.632765   5.410212   6.155428   4.705398
    17  C    5.582947   5.451015   5.864983   6.546518   4.577303
    18  H    5.864985   5.677113   6.326782   6.735076   4.790858
    19  H    6.546518   6.377952   6.735073   7.546119   5.605937
    20  H    5.451014   5.537180   5.677111   6.377952   4.274238
                    6          7          8          9         10
     6  H    0.000000
     7  H    1.765787   0.000000
     8  C    2.167402   2.177366   0.000000
     9  H    2.388980   2.589599   1.107607   0.000000
    10  H    2.587416   3.090547   1.106787   1.764824   0.000000
    11  C    3.485487   2.724272   1.534455   2.170992   2.175296
    12  H    3.837249   3.006992   2.170992   3.086333   2.535298
    13  H    3.708621   2.492677   2.175296   2.535297   3.091800
    14  C    4.705399   4.178326   2.553229   2.784989   2.782411
    15  H    4.851421   4.687282   2.724272   3.006994   2.492676
    16  H    5.598032   4.851421   3.485487   3.837249   3.708621
    17  C    5.154725   4.676449   3.200594   2.864983   3.596017
    18  H    5.410214   4.630921   3.637432   3.279893   4.280388
    19  H    6.155428   5.760973   4.166075   3.819719   4.380763
    20  H    4.632766   4.457596   2.915916   2.249708   3.284812
                   11         12         13         14         15
    11  C    0.000000
    12  H    1.107607   0.000000
    13  H    1.106787   1.764824   0.000000
    14  C    1.535634   2.169433   2.176621   0.000000
    15  H    2.177366   2.589599   3.090547   1.107598   0.000000
    16  H    2.167402   2.388980   2.587416   1.108188   1.765787
    17  C    2.553062   3.484142   2.726338   1.527359   2.168131
    18  H    2.821428   3.744211   2.544007   2.182121   3.090950
    19  H    3.506146   4.317920   3.749731   2.178372   2.503690
    20  H    2.829291   3.877076   3.052834   2.181960   2.538765
                   16         17         18         19         20
    16  H    0.000000
    17  C    2.163894   0.000000
    18  H    2.532322   1.095760   0.000000
    19  H    2.500330   1.095312   1.767715   0.000000
    20  H    3.088145   1.096023   1.764842   1.767447   0.000000
 Stoichiometry    C6H14
 Framework group  C1[X(C6H14)]
 Deg. of freedom    54
 Full point group                 C1      NOp   1
 Largest Abelian subgroup         C1      NOp   1
 Largest concise Abelian subgroup C1      NOp   1
                         Standard orientation:                         
 ---------------------------------------------------------------------
 Center     Atomic      Atomic             Coordinates (Angstroms)
 Number     Number       Type             X           Y           Z
 ---------------------------------------------------------------------
      1          6           0       -2.749863   -0.473388   -0.080497
      2          1           0       -2.359493   -1.408750    0.336609
      3          1           0       -2.876452   -0.625817   -1.158194
      4          1           0       -3.744027   -0.310217    0.349297
      5          6           0       -1.819790    0.701841    0.213828
      6          1           0       -2.265517    1.632780   -0.189608
      7          1           0       -1.746349    0.855138    1.308304
      8          6           0       -0.416719    0.518197   -0.382695
      9          1           0        0.111720    1.491610   -0.379448
     10          1           0       -0.496160    0.224403   -1.446815
     11          6           0        0.416719   -0.518196    0.382696
     12          1           0       -0.111720   -1.491609    0.379450
     13          1           0        0.496160   -0.224402    1.446816
     14          6           0        1.819789   -0.701842   -0.213827
     15          1           0        1.746347   -0.855139   -1.308304
     16          1           0        2.265517   -1.632780    0.189608
     17          6           0        2.749863    0.473387    0.080496
     18          1           0        2.876455    0.625816    1.158192
     19          1           0        3.744027    0.310216   -0.349299
     20          1           0        2.359493    1.408749   -0.336609
 ---------------------------------------------------------------------
 Rotational constants (GHZ):      9.0209476      1.4264494      1.3357105
 Leave Link  202 at Mon Sep 14 19:13:32 2015, MaxMem=  402653184 cpu:       0.0
 (Enter /share/apps/g09/l601.exe)
 Copying SCF densities to generalized density rwf, IOpCl= 0 IROHF=0.

 **********************************************************************

            Population analysis using the SCF density.

 **********************************************************************

 Orbital symmetries:
       Occupied  (A) (A) (A) (A) (A) (A) (A) (A) (A) (A) (A) (A)
                 (A) (A) (A) (A) (A) (A) (A)
       Virtual   (A) (A) (A) (A) (A) (A) (A) (A) (A) (A) (A) (A)
                 (A) (A) (A) (A) (A) (A) (A)
 The electronic state is 1-A.
 Alpha  occ. eigenvalues --   -1.05703  -0.99755  -0.90156  -0.83650  -0.74884
 Alpha  occ. eigenvalues --   -0.71748  -0.58132  -0.56439  -0.55518  -0.51945
 Alpha  occ. eigenvalues --   -0.51306  -0.49177  -0.46462  -0.45032  -0.44830
 Alpha  occ. eigenvalues --   -0.42573  -0.41504  -0.40832  -0.40145
 Alpha virt. eigenvalues --    0.15392   0.16522   0.16701   0.17286   0.18099
 Alpha virt. eigenvalues --    0.21070   0.21261   0.21369   0.22221   0.22270
 Alpha virt. eigenvalues --    0.22835   0.23164   0.23295   0.24200   0.24505
 Alpha virt. eigenvalues --    0.24783   0.24812   0.25726   0.26005
          Condensed to atoms (all electrons):
              1          2          3          4          5          6
     1  C    4.459258   0.000000   0.000000   0.000000   0.000000   0.000000
     2  H    0.000000   0.853511   0.000000   0.000000   0.000000   0.000000
     3  H    0.000000   0.000000   0.854487   0.000000   0.000000   0.000000
     4  H    0.000000   0.000000   0.000000   0.858609   0.000000   0.000000
     5  C    0.000000   0.000000   0.000000   0.000000   4.223627   0.000000
     6  H    0.000000   0.000000   0.000000   0.000000   0.000000   0.877451
     7  H    0.000000   0.000000   0.000000   0.000000   0.000000   0.000000
     8  C    0.000000   0.000000   0.000000   0.000000   0.000000   0.000000
     9  H    0.000000   0.000000   0.000000   0.000000   0.000000   0.000000
    10  H    0.000000   0.000000   0.000000   0.000000   0.000000   0.000000
    11  C    0.000000   0.000000   0.000000   0.000000   0.000000   0.000000
    12  H    0.000000   0.000000   0.000000   0.000000   0.000000   0.000000
    13  H    0.000000   0.000000   0.000000   0.000000   0.000000   0.000000
    14  C    0.000000   0.000000   0.000000   0.000000   0.000000   0.000000
    15  H    0.000000   0.000000   0.000000   0.000000   0.000000   0.000000
    16  H    0.000000   0.000000   0.000000   0.000000   0.000000   0.000000
    17  C    0.000000   0.000000   0.000000   0.000000   0.000000   0.000000
    18  H    0.000000   0.000000   0.000000   0.000000   0.000000   0.000000
    19  H    0.000000   0.000000   0.000000   0.000000   0.000000   0.000000
    20  H    0.000000   0.000000   0.000000   0.000000   0.000000   0.000000
              7          8          9         10         11         12
     1  C    0.000000   0.000000   0.000000   0.000000   0.000000   0.000000
     2  H    0.000000   0.000000   0.000000   0.000000   0.000000   0.000000
     3  H    0.000000   0.000000   0.000000   0.000000   0.000000   0.000000
     4  H    0.000000   0.000000   0.000000   0.000000   0.000000   0.000000
     5  C    0.000000   0.000000   0.000000   0.000000   0.000000   0.000000
     6  H    0.000000   0.000000   0.000000   0.000000   0.000000   0.000000
     7  H    0.873538   0.000000   0.000000   0.000000   0.000000   0.000000
     8  C    0.000000   4.259515   0.000000   0.000000   0.000000   0.000000
     9  H    0.000000   0.000000   0.871536   0.000000   0.000000   0.000000
    10  H    0.000000   0.000000   0.000000   0.868467   0.000000   0.000000
    11  C    0.000000   0.000000   0.000000   0.000000   4.259515   0.000000
    12  H    0.000000   0.000000   0.000000   0.000000   0.000000   0.871536
    13  H    0.000000   0.000000   0.000000   0.000000   0.000000   0.000000
    14  C    0.000000   0.000000   0.000000   0.000000   0.000000   0.000000
    15  H    0.000000   0.000000   0.000000   0.000000   0.000000   0.000000
    16  H    0.000000   0.000000   0.000000   0.000000   0.000000   0.000000
    17  C    0.000000   0.000000   0.000000   0.000000   0.000000   0.000000
    18  H    0.000000   0.000000   0.000000   0.000000   0.000000   0.000000
    19  H    0.000000   0.000000   0.000000   0.000000   0.000000   0.000000
    20  H    0.000000   0.000000   0.000000   0.000000   0.000000   0.000000
             13         14         15         16         17         18
     1  C    0.000000   0.000000   0.000000   0.000000   0.000000   0.000000
     2  H    0.000000   0.000000   0.000000   0.000000   0.000000   0.000000
     3  H    0.000000   0.000000   0.000000   0.000000   0.000000   0.000000
     4  H    0.000000   0.000000   0.000000   0.000000   0.000000   0.000000
     5  C    0.000000   0.000000   0.000000   0.000000   0.000000   0.000000
     6  H    0.000000   0.000000   0.000000   0.000000   0.000000   0.000000
     7  H    0.000000   0.000000   0.000000   0.000000   0.000000   0.000000
     8  C    0.000000   0.000000   0.000000   0.000000   0.000000   0.000000
     9  H    0.000000   0.000000   0.000000   0.000000   0.000000   0.000000
    10  H    0.000000   0.000000   0.000000   0.000000   0.000000   0.000000
    11  C    0.000000   0.000000   0.000000   0.000000   0.000000   0.000000
    12  H    0.000000   0.000000   0.000000   0.000000   0.000000   0.000000
    13  H    0.868467   0.000000   0.000000   0.000000   0.000000   0.000000
    14  C    0.000000   4.223627   0.000000   0.000000   0.000000   0.000000
    15  H    0.000000   0.000000   0.873538   0.000000   0.000000   0.000000
    16  H    0.000000   0.000000   0.000000   0.877451   0.000000   0.000000
    17  C    0.000000   0.000000   0.000000   0.000000   4.459258   0.000000
    18  H    0.000000   0.000000   0.000000   0.000000   0.000000   0.854487
    19  H    0.000000   0.000000   0.000000   0.000000   0.000000   0.000000
    20  H    0.000000   0.000000   0.000000   0.000000   0.000000   0.000000
             19         20
     1  C    0.000000   0.000000
     2  H    0.000000   0.000000
     3  H    0.000000   0.000000
     4  H    0.000000   0.000000
     5  C    0.000000   0.000000
     6  H    0.000000   0.000000
     7  H    0.000000   0.000000
     8  C    0.000000   0.000000
     9  H    0.000000   0.000000
    10  H    0.000000   0.000000
    11  C    0.000000   0.000000
    12  H    0.000000   0.000000
    13  H    0.000000   0.000000
    14  C    0.000000   0.000000
    15  H    0.000000   0.000000
    16  H    0.000000   0.000000
    17  C    0.000000   0.000000
    18  H    0.000000   0.000000
    19  H    0.858609   0.000000
    20  H    0.000000   0.853511
 Mulliken atomic charges:
              1
     1  C   -0.459258
     2  H    0.146489
     3  H    0.145513
     4  H    0.141391
     5  C   -0.223627
     6  H    0.122549
     7  H    0.126462
     8  C   -0.259515
     9  H    0.128464
    10  H    0.131533
    11  C   -0.259515
    12  H    0.128464
    13  H    0.131533
    14  C   -0.223627
    15  H    0.126462
    16  H    0.122549
    17  C   -0.459258
    18  H    0.145513
    19  H    0.141391
    20  H    0.146489
 Sum of Mulliken atomic charges =   0.00000
 Mulliken charges with hydrogens summed into heavy atoms:
              1
     1  C   -0.025865
     5  C    0.025384
     8  C    0.000481
    11  C    0.000481
    14  C    0.025384
    17  C   -0.025865
 Sum of Mulliken charges with hydrogens summed into heavy atoms =   0.00000
 Charge=              0.0000 electrons
 Dipole moment (field-independent basis, Debye):
    X=              0.0000    Y=              0.0000    Z=              0.0000  Tot=              0.0000
 N-N= 1.639371682435D+02 E-N=-2.488862341604D+02  KE=-5.610314706882D+01
 Leave Link  601 at Mon Sep 14 19:13:32 2015, MaxMem=  402653184 cpu:       0.0
 (Enter /share/apps/g09/l9999.exe)
 1\1\GINC-COMPUTE-0-5\FOpt\RPM6\ZDO\C6H14\HETANJIN\14-Sep-2015\0\\#p PM
 6 opt\\using PM6 to do opt and freq calc.\\0,1\C,1.7053119966,2.097534
 9041,0.7658676324\H,1.9162890768,1.2100036329,0.158377181\H,1.81560424
 93,1.8061942338,1.8164134002\H,2.4801049,2.8397450493,0.5455760658\C,0
 .3107977512,2.6518615421,0.4814759881\H,0.1495447473,3.5673374531,1.08
 47848823\H,0.2457362809,2.9750494093,-0.57592127\C,-0.8072416307,1.645
 1473031,0.7891866587\H,-1.7772964694,2.1781310541,0.8305932477\H,-0.65
 87418179,1.2152218278,1.7981908782\C,-0.8869687162,0.5189536478,-0.249
 987539\H,0.0830864772,-0.0140294687,-0.291394826\H,-1.0354694908,0.948
 8792138,-1.2589915857\C,-2.0050072208,-0.487761438,0.0577236248\H,-1.9
 399447637,-0.8109492717,1.1151210019\H,-1.8437542302,-1.4032369653,-0.
 5455855077\C,-3.3995220536,0.066564461,-0.2266666399\H,-3.5098157699,0
 .3579036617,-1.2772127558\H,-4.1743143209,-0.6756460592,-0.0063737876\
 H,-3.6104989952,0.9540958089,0.3808233505\\Version=EM64L-G09RevA.01\St
 ate=1-A\HF=-0.0554352\RMSD=1.741e-09\RMSF=1.013e-05\Dipole=0.,-0.00000
 02,0.\PG=C01 [X(C6H14)]\\@


          EVOLUTION
 IN THE BEGINNING GOD MADE MAN.
 HE WORKED THE DIRT WITH HIS HANDS.
 THEN GOD DECIDED TO GIVE MAN SCIENCE,
 MAN SHOULD BE USEFUL (LIKE AN APPLIANCE.)
 BUT SOON MAN'S KNOWLEDGE GREW TOO GREAT,
 TO THE HEADING SCIENCE HE COULDN'T RELATE
 SO GOD SAID "LETS HAVE DIFFERENT FIELDS,
 WE'LL DIVIDE THEM UP, SEE WHAT IT YIELDS."
 ENTER PHYSICS, CHEMISTRY, BIO
 THEY SPRANG UP AROUND THE NILE.
 BUT CHEMISTRY SURPASSED THE REST
 FAR AND AWAY IT WAS THE BEST.
 EXPERIMENT WAS GOD'S DECREE
 EXPERIMENT DID CHEMISTS WITH LOTS OF GLEE
 BUT SOON THEIR TESTS BEGAN TO BOG,
 THEY FOUND THEMSELVES DEEP IN A FOG.
 "GIVE US SOME HELP" THEY CRIED TO GOD.
 GOD LOOKED AROUND, THEN GAVE THE NOD.
 ENTER EINSTEIN, HEISENBERG, BOHR,
 REACTION PATHS WERE CLEAR ONCE MORE.
 WITH THEORISTS GOD SEND DIRECTION
 AND THEN HE STOPPED, HE'D MADE PERFECTION.
          -- THOMAS A. HOLME, 1981
 Job cpu time:  0 days  0 hours  0 minutes 18.7 seconds.
 File lengths (MBytes):  RWF=      5 Int=      0 D2E=      0 Chk=      3 Scr=      1
 Normal termination of Gaussian 09 at Mon Sep 14 19:13:33 2015.
